190
Atoms. Timestep: 0
2 -1.98868 6.69027 53.6768
7 -1.26467 2.17436 52.6008
1 -0.669098 8.88253 51.2028
2 2.32356 6.55445 50.2968
4 -0.239912 3.39847 49.2888
1 4.67971 7.55239 47.8228
2 5.73241 3.90989 46.9168
3 1.66126 1.82583 45.8408
1 8.22515 3.33234 44.4428
2 6.93579 -0.233265 43.5368
6 3.10594 0.865236 42.5208
1 8.61298 -2.16571 41.0628
2 5.47407 -4.29248 40.1568
3 2.23394 -1.0646 39.0808
1 5.69508 -6.84169 37.6828
2 1.90555 -6.71728 36.7768
3 1.18154 -2.20137 35.7008
1 0.585967 -8.90954 34.3028
2 -2.40669 -6.58146 33.3968
3 -0.338045 -2.50245 32.3208
1 -4.76284 -7.5794 30.9228
2 -5.81554 -3.9369 30.0168
5 -1.79204 -1.50059 28.9228
1 -8.30828 -3.35935 27.5428
2 -7.01893 0.206255 26.6368
5 -2.33182 -0.18768 25.5428
1 -8.69611 2.1387 24.1628
2 -5.5572 4.26547 23.2568
4 -3.34784 0.852215 22.2488
1 -5.77821 6.81468 20.7828
2 -1.98868 6.69027 19.8768
5 -0.914942 2.11083 18.7828
1 -0.669098 8.88253 17.4028
2 2.32356 6.55445 16.4968
6 0.095336 3.2515 15.4808
1 4.67971 7.55239 14.0228
2 5.73241 3.90989 13.1168
5 1.70891 1.47358 12.0228
1 8.22515 3.33234 10.6428
2 6.93579 -0.233265 9.73684
3 2.41718 0.473651 8.66084
1 8.61298 -2.16571 7.26284
2 5.47407 -4.29248 6.35684
5 1.91366 -1.21877 5.26284
1 5.69508 -6.84169 3.88284
2 1.90555 -6.71728 2.97684
5 0.831811 -2.13784 1.88284
1 0.585967 -8.90954 0.502844
2 -2.40669 -6.58146 -0.403156
4 0.156782 -3.42549 -1.41116
1 -4.76284 -7.5794 -2.87716
2 -5.81554 -3.9369 -3.78316
4 -1.88661 -2.89044 -4.79116
1 -8.30828 -3.35935 -6.25716
2 -7.01893 0.206255 -7.16316
4 -3.22526 -1.2565 -8.17116
1 -8.69611 2.1387 -9.63716
2 -5.5572 4.26547 -10.5432
6 -3.10446 1.12564 -11.5592
1 -5.77821 6.81468 -13.0172
2 -1.98868 6.69027 -13.9232
4 -2.20754 2.63026 -14.9312
1 -0.669098 8.88253 -16.3972
2 2.32356 6.55445 -17.3032
3 0.254915 2.47544 -18.3792
1 4.67971 7.55239 -19.7772
2 5.73241 3.90989 -20.6832
4 1.80348 2.86343 -21.6912
1 8.22515 3.33234 -23.1572
2 6.93579 -0.233265 -24.0632
5 2.24869 0.160669 -25.1572
1 8.61298 -2.16571 -26.5372
2 5.47407 -4.29248 -27.4432
6 3.02133 -1.15265 -28.4592
1 5.69508 -6.84169 -29.9172
2 1.90555 -6.71728 -30.8232
4 2.12441 -2.65727 -31.8312
1 0.585967 -8.90954 -33.2972
2 -2.40669 -6.58146 -34.2032
6 -0.178467 -3.27851 -35.2192
1 -4.76284 -7.5794 -36.6772
2 -5.81554 -3.9369 -37.5832
6 -2.07144 -2.57448 -38.5992
1 -8.30828 -3.35935 -40.0572
2 -7.01893 0.206255 -40.9632
6 -3.18907 -0.892246 -41.9792
1 -8.69611 2.1387 -43.4372
2 -5.5572 4.26547 -44.3432
3 -2.31707 1.03759 -45.4192
1 -5.77821 6.81468 -46.8172
2 -1.98868 6.69027 -47.7232
6 -1.84993 2.70841 -48.7392
1 -0.669098 8.88253 -50.1972
2 2.32356 6.55445 -51.1032
13 0.500511 2.21848 -52.1972
2 2.32356 -6.58146 -53.6632
10 0.095336 -3.27851 -52.6472
1 4.67971 -7.5794 -51.1892
2 5.73241 -3.9369 -50.2832
5 1.70891 -1.50059 -49.1892
1 8.22515 -3.35935 -47.8092
2 6.93579 0.206255 -46.9032
4 3.14213 -1.2565 -45.8952
1 8.61298 2.1387 -44.4292
2 5.47407 4.26547 -43.5232
5 1.91366 1.19176 -42.4292
1 5.69508 6.81468 -41.0492
2 1.90555 6.69027 -40.1432
5 0.831811 2.11083 -39.0492
1 0.585967 8.88253 -37.6692
2 -2.40669 6.55445 -36.7632
5 -0.583642 2.21848 -35.6692
1 -4.76284 7.55239 -34.2892
2 -5.81554 3.90989 -33.3832
3 -1.74439 1.82583 -32.3072
1 -8.30828 3.33234 -30.9092
2 -7.01893 -0.233265 -30.0032
5 -2.33182 0.160669 -28.9092
1 -8.69611 -2.16571 -27.5292
2 -5.5572 -4.29248 -26.6232
6 -3.10446 -1.15265 -25.6072
1 -5.77821 -6.84169 -24.1492
2 -1.98868 -6.71728 -23.2432
3 -1.26467 -2.20137 -22.1672
1 -0.669098 -8.90954 -20.7692
2 2.32356 -6.58146 -19.8632
4 -0.239912 -3.42549 -18.8552
1 4.67971 -7.5794 -17.3892
2 5.73241 -3.9369 -16.4832
3 1.66126 -1.85284 -15.4072
1 8.22515 -3.35935 -14.0092
2 6.93579 0.206255 -13.1032
5 2.24869 -0.18768 -12.0092
1 8.61298 2.1387 -10.6292
2 5.47407 4.26547 -9.72316
3 2.23394 1.03759 -8.64716
1 5.69508 6.81468 -7.24916
2 1.90555 6.69027 -6.34316
3 1.18154 2.17436 -5.26716
1 0.585967 8.88253 -3.86916
2 -2.40669 6.55445 -2.96316
3 -0.338045 2.47544 -1.88716
1 -4.76284 7.55239 -0.489156
2 -5.81554 3.90989 0.416844
6 -2.07144 2.54747 1.43284
1 -8.30828 3.33234 2.89084
2 -7.01893 -0.233265 3.79684
6 -3.18907 0.865236 4.81284
1 -8.69611 -2.16571 6.27084
2 -5.5572 -4.29248 7.17684
4 -3.34784 -0.879226 8.18484
1 -5.77821 -6.84169 9.65084
2 -1.98868 -6.71728 10.5568
6 -1.84993 -2.73542 11.5728
1 -0.669098 -8.90954 13.0308
2 2.32356 -6.58146 13.9368
5 0.500511 -2.24549 15.0308
1 4.67971 -7.5794 16.4108
2 5.73241 -3.9369 17.3168
6 1.98831 -2.57448 18.3328
1 8.22515 -3.35935 19.7908
2 6.93579 0.206255 20.6968
3 2.41718 -0.500662 21.7728
1 8.61298 2.1387 23.1708
2 5.47407 4.26547 24.0768
6 3.02133 1.12564 25.0928
1 5.69508 6.81468 26.5508
2 1.90555 6.69027 27.4568
6 1.7668 2.70841 28.4728
1 0.585967 8.88253 29.9308
2 -2.40669 6.55445 30.8368
4 0.156782 3.39847 31.8448
1 -4.76284 7.55239 33.3108
2 -5.81554 3.90989 34.2168
4 -1.88661 2.86343 35.2248
1 -8.30828 3.33234 36.6908
2 -7.01893 -0.233265 37.5968
4 -3.22526 1.22949 38.6048
1 -8.69611 -2.16571 40.0708
2 -5.5572 -4.29248 40.9768
5 -1.9968 -1.21877 42.0708
1 -5.77821 -6.84169 43.4508
2 -1.98868 -6.71728 44.3568
4 -2.20754 -2.65727 45.3648
1 -0.669098 -8.90954 46.8308
2 2.32356 -6.58146 47.7368
3 0.254915 -2.50245 48.8128
1 4.67971 -7.5794 50.2108
2 5.73241 -3.9369 51.1168
12 1.80348 -2.89044 52.1248
190
Atoms. Timestep: 2000
2 -2.62599 5.79235 52.6769
7 -1.79372 1.32833 52.1037
1 -1.12659 8.15 50.0089
2 1.90228 6.33359 49.4698
4 -0.489555 3.11533 48.9988
1 4.17639 7.18302 46.5433
2 5.24515 3.16993 46.4606
3 1.05791 1.33582 45.4881
1 7.48535 2.51875 43.9653
2 6.09101 -1.2654 43.5929
6 2.45077 -0.112439 42.1632
1 8.03193 -3.21587 41.5682
2 5.22372 -5.15432 39.9865
3 2.06403 -2.09011 38.5373
1 5.9406 -8.13988 37.6532
2 2.37601 -7.91723 35.5132
3 1.2521 -3.3462 35.1043
1 1.3495 -9.8561 33.1006
2 -1.69649 -7.88105 32.0419
3 -0.166381 -3.16382 31.7497
1 -3.61673 -8.90244 28.9286
2 -5.43933 -5.07662 28.7677
5 -1.43593 -2.06791 28.4148
1 -7.47408 -4.29142 25.7576
2 -6.29506 -0.277243 25.6727
5 -1.84058 -0.60443 24.8819
1 -7.72969 1.99761 23.2107
2 -4.90035 4.08181 23.1803
4 -2.46277 0.800147 21.5296
1 -4.72736 7.29023 21.3838
2 -0.81211 7.00013 20.4139
5 0.476645 2.62661 19.0404
1 0.471563 9.55963 18.4681
2 3.32034 7.45077 17.1074
6 1.34661 4.1397 15.8494
1 5.6482 8.44545 14.6076
2 6.71148 4.92684 13.77
5 2.89725 2.85558 12.3104
1 9.73374 4.3365 10.9264
2 8.43745 1.14178 10.0924
3 4.234 1.70147 9.05657
1 10.2358 -1.01992 7.27241
2 6.93526 -2.6635 6.38546
5 3.66787 0.909064 5.23815
1 6.81449 -5.04718 3.83842
2 3.13884 -4.53725 2.74167
5 2.39491 -0.0673244 1.763
1 1.39028 -6.64532 0.117814
2 -1.28641 -4.23961 -0.789926
4 1.57705 -1.11045 -1.56647
1 -4.14651 -4.81933 -3.20384
2 -4.60615 -1.15976 -3.92469
4 -0.414587 -0.39599 -4.91321
1 -7.13467 -0.397893 -6.10246
2 -5.62133 2.86727 -7.54458
4 -1.55944 1.22009 -8.2749
1 -7.51414 4.20584 -10.7717
2 -4.51107 6.12514 -12.2657
6 -1.98156 2.73385 -12.0065
1 -4.81684 7.77821 -15.24
2 -1.03293 8.24273 -15.3721
4 -0.938389 4.0506 -15.3131
1 -0.434637 9.87758 -18.2048
2 2.71419 8.18471 -18.9904
3 1.14621 3.85481 -19.0761
1 4.69595 9.35025 -21.57
2 6.45963 6.03635 -22.2231
4 2.91068 4.24028 -22.2794
1 8.76068 5.44106 -24.8617
2 8.05245 1.37288 -25.0504
5 3.28853 1.17427 -25.3571
1 9.66491 -0.917563 -28.0365
2 6.83794 -2.90414 -27.5932
6 4.11718 -0.244278 -28.5753
1 6.67187 -5.82227 -29.0533
2 2.71753 -5.78286 -29.9843
4 2.84675 -2.02695 -31.8644
1 1.58459 -8.12859 -31.7818
2 -1.78349 -6.05431 -33.1484
6 0.00517095 -2.73153 -34.778
1 -3.98444 -7.75 -36.0209
2 -5.18159 -4.41493 -37.4324
6 -1.3207 -2.77516 -38.5016
1 -8.02723 -3.82216 -40.2178
2 -6.81408 -0.101669 -41.0315
6 -2.8853 -1.32481 -41.8287
1 -8.48482 1.52859 -43.2898
2 -5.55879 3.61297 -44.509
3 -1.73127 0.244393 -45.3568
1 -6.09622 5.39284 -47.2902
2 -2.58377 5.77508 -48.7264
6 -2.04838 1.53418 -48.7498
1 -2.31159 7.01851 -52.2818
2 0.431848 4.81079 -53.7005
13 -0.0188234 -0.0406264 -52.334
2 4.1133 -7.9779 -52.0976
10 1.41725 -5.37653 -51.0164
1 6.60354 -7.94311 -49.984
2 6.7926 -4.1433 -49.7532
5 2.11135 -2.01941 -48.5385
1 9.40833 -2.82207 -47.4513
2 7.58821 0.406007 -46.8251
4 3.95656 -1.47234 -45.5442
1 9.10484 2.62707 -44.3043
2 5.52868 4.46623 -43.4524
5 2.11199 0.832148 -42.1261
1 5.41482 7.50777 -41.5879
2 1.75437 7.20915 -40.4838
5 1.24622 2.36556 -38.8054
1 0.244195 9.17224 -38.2227
2 -2.61073 6.62032 -37.0784
5 -0.81745 2.85277 -35.6404
1 -4.78233 7.66666 -34.3906
2 -5.61553 4.33011 -33.4231
3 -1.09933 2.42947 -32.1234
1 -8.09478 3.66523 -30.5659
2 -6.22294 -0.165573 -29.9963
5 -1.50299 0.325242 -28.9283
1 -7.41204 -2.58582 -27.4695
2 -3.96482 -4.30359 -26.9432
6 -1.94473 -1.04222 -25.3994
1 -3.74061 -7.0544 -24.4564
2 0.0188486 -6.2168 -22.9511
3 -0.00764361 -1.27458 -22.0205
1 1.4936 -8.0287 -19.88
2 4.70908 -5.09936 -19.4848
4 1.74785 -2.04087 -18.6871
1 7.08731 -5.64098 -17.1037
2 7.87138 -1.65854 -16.6957
3 3.52395 0.258447 -15.4712
1 10.0996 -0.873258 -14.0133
2 8.35486 2.62695 -13.1132
5 3.56363 1.99339 -12.221
1 9.76253 4.74081 -11.0866
2 6.95724 6.72165 -10.0508
3 3.79368 3.50901 -8.79496
1 7.28205 9.37351 -7.66288
2 3.29621 9.16429 -6.46127
3 2.72282 4.80081 -5.41895
1 2.74065 11.2155 -3.57614
2 -0.199645 9.21305 -2.56333
3 1.87751 4.80403 -1.84664
1 -2.2182 9.79277 0.0482497
2 -3.63809 6.21459 -0.0873765
6 -0.389854 4.62735 1.01256
1 -6.73465 5.32846 1.76223
2 -5.14378 1.54135 2.66671
6 -1.53966 2.84259 4.4558
1 -6.98711 -0.416455 4.47454
2 -3.92243 -3.02807 6.08867
4 -1.67532 0.478417 7.57927
1 -4.58909 -5.46254 8.07025
2 -0.672439 -5.35296 9.98371
6 -0.388691 -1.20031 11.0996
1 0.250874 -7.52363 12.7027
2 3.52437 -5.03927 12.8957
5 1.59118 -1.3209 14.7708
1 6.23945 -6.30036 14.8816
2 7.28072 -2.72798 16.5945
6 3.49275 -1.90529 17.8503
1 9.77263 -2.38116 19.4167
2 7.85297 0.915403 20.9537
3 3.3544 -0.337481 21.6447
1 9.53816 2.48101 24.0042
2 6.12885 4.39251 25.398
6 3.42914 0.854194 25.3918
1 6.35447 6.07406 28.4894
2 2.56898 6.40096 28.8018
6 2.01467 2.20727 28.6097
1 0.687437 8.08174 31.0143
2 -2.09359 5.70916 31.4858
4 0.337662 2.66506 32.1203
1 -4.84227 6.29615 33.7525
2 -5.65621 2.48977 33.8019
4 -2.13206 1.53311 35.1863
1 -8.77963 1.92313 35.87
2 -7.65638 -1.81759 37.3118
4 -3.58273 -0.152511 38.3462
1 -9.5007 -2.87582 39.6146
2 -6.49541 -5.3864 41.3778
5 -2.46718 -2.27073 42.0541
1 -7.09024 -7.94609 44.2757
2 -2.88165 -8.02493 45.0909
4 -2.84133 -3.62443 45.4098
1 -1.28601 -9.60807 48.148
2 1.78306 -7.08657 47.9673
3 -0.375474 -2.78068 49.025
1 4.55099 -7.78094 50.1918
2 5.60155 -4.2901 50.1154
12 2.01051 -3.10562 51.7252
190
Atoms. Timestep: 4000
2 -7.20813 7.0904 53.5025
7 -6.21295 2.71663 52.7266
1 -6.16008 9.02512 51.296
2 -2.72323 7.20618 50.8619
4 -4.51003 3.34827 49.5137
1 -0.618849 8.48619 48.5827
2 1.58163 5.20067 47.911
3 -1.67926 2.23919 46.65
1 4.7093 5.2834 45.7608
2 4.36412 1.76255 45.0487
6 0.486427 2.09244 43.6148
1 6.80702 -0.250115 43.0014
2 4.06118 -2.66847 41.1311
3 0.441411 0.0776887 40.2351
1 5.01149 -4.66531 38.3597
2 1.68684 -4.54618 36.7803
3 0.87119 -0.129057 36.3144
1 0.55187 -6.57474 33.7577
2 -2.64666 -4.46921 33.3317
3 -0.96691 -0.203076 32.8329
1 -4.92908 -5.44937 30.4935
2 -5.90563 -1.63462 29.5455
5 -2.12938 0.829604 29.5245
1 -7.64967 -1.10746 26.8665
2 -6.45339 2.14155 26.296
5 -1.86886 1.92755 25.7036
1 -7.84288 4.09321 23.7602
2 -4.62058 7.14525 23.5581
4 -2.09546 4.01 22.7248
1 -4.61845 9.85107 21.0724
2 -1.1514 10.0931 20.6834
5 0.52843 5.85197 19.7166
1 0.192334 12.2864 18.2374
2 3.73166 10.2318 17.7502
6 1.87519 7.04132 16.5769
1 5.99209 11.6307 15.7875
2 7.12367 8.1891 14.0499
5 3.4838 5.48313 13.0226
1 9.85681 8.26883 11.1434
2 8.44562 5.14933 9.52734
3 3.81442 5.80945 9.03366
1 9.93344 3.91123 7.3686
2 7.43502 1.77962 6.88169
5 3.25166 4.28234 5.68387
1 8.35967 -0.926807 4.1725
2 4.51896 -1.6406 3.66562
5 2.38751 2.81578 2.55387
1 3.37008 -4.10284 0.832385
2 -0.096886 -1.86093 -0.154522
4 2.24562 1.74715 -0.96744
1 -2.7104 -3.1286 -2.2545
2 -4.17151 0.341188 -3.7659
4 0.0627681 1.26367 -4.38529
1 -6.514 0.761495 -6.03295
2 -4.95306 3.98067 -7.06015
4 -1.03152 2.45942 -8.01951
1 -6.97384 6.12538 -9.25776
2 -4.22203 7.99166 -10.2308
6 -1.526 4.72159 -11.316
1 -4.91327 10.1776 -12.7291
2 -1.1222 10.3757 -14.215
4 -0.969346 6.55471 -14.6914
1 -0.33611 12.4144 -17.4628
2 2.76116 10.2228 -18.4936
3 1.28908 5.32529 -18.1983
1 4.72002 10.382 -21.2996
2 6.10257 6.8107 -20.9617
4 2.15799 5.09391 -21.759
1 8.92144 5.4756 -23.2601
2 7.70349 1.72731 -23.4881
5 3.12784 1.73976 -24.5588
1 9.38409 -0.23618 -25.3378
2 6.69453 -2.47563 -26.1594
6 4.07719 0.512678 -27.6546
1 7.17382 -5.13095 -28.3847
2 3.44474 -5.49927 -29.4372
4 2.88669 -1.28776 -30.6967
1 2.02629 -8.16958 -31.5761
2 -0.930167 -6.50329 -32.746
6 0.578624 -2.32336 -33.9458
1 -2.65012 -8.13098 -35.2543
2 -4.10844 -5.09739 -36.535
6 -0.458129 -3.04371 -37.587
1 -6.57411 -5.05395 -38.7691
2 -6.01816 -1.65376 -40.4286
6 -2.09693 -2.03807 -40.9154
1 -7.91242 -0.528837 -43.4696
2 -5.41549 2.0788 -44.4053
3 -1.6267 -0.381763 -44.7418
1 -6.2336 4.22061 -47.1439
2 -2.48325 4.5705 -48.319
6 -1.71347 0.905712 -48.2677
1 -1.3296 7.08461 -51.3456
2 2.19276 4.82604 -52.3826
13 0.508203 0.318259 -51.7369
2 3.06953 -8.70102 -51.1489
10 0.677009 -5.11781 -50.7328
1 6.03335 -8.75188 -48.9832
2 6.75522 -4.61787 -48.8926
5 2.7855 -2.41237 -48.1923
1 9.23637 -3.3951 -46.5862
2 7.34753 -0.183039 -45.8034
4 3.92498 -1.74554 -44.818
1 8.63419 2.1353 -43.4614
2 5.14667 4.08667 -43.2998
5 2.38087 1.04573 -41.674
1 4.93973 6.73696 -41.357
2 1.09424 6.29198 -40.2546
5 0.901611 2.15793 -38.432
1 -0.459471 8.82572 -38.2027
2 -3.21319 6.65468 -36.7575
5 -0.725524 2.94535 -35.294
1 -5.41782 7.51184 -33.5336
2 -5.78451 3.5747 -32.4554
3 -1.29825 2.65707 -31.2355
1 -7.69348 2.81374 -29.9546
2 -5.82641 -0.257705 -28.7592
5 -1.60643 1.1237 -27.7383
1 -7.51797 -2.05391 -25.9337
2 -4.36109 -3.85955 -24.8266
6 -1.99706 -0.593792 -24.5049
1 -4.12779 -5.8222 -21.6723
2 -0.0426826 -4.939 -21.1421
3 0.281892 -0.591592 -21.2371
1 1.45005 -6.14112 -18.118
2 4.13375 -3.78685 -17.8417
4 1.6253 -0.632001 -17.7004
1 6.0973 -4.28692 -15.024
2 7.16232 -0.549064 -14.8318
3 2.88865 1.66973 -14.1526
1 9.67513 0.742641 -11.9461
2 8.30774 4.0699 -11.7877
5 3.77129 3.86472 -11.2528
1 9.67185 6.11065 -9.77545
2 6.91243 8.01498 -9.48759
3 4.21508 5.1179 -7.90554
1 6.95382 11.0005 -6.97416
2 3.35881 10.995 -6.16486
3 2.79116 6.47343 -4.76394
1 1.12378 13.5738 -4.17901
2 -1.53191 10.8054 -3.10926
3 0.922677 7.34669 -1.6865
1 -4.89538 11.5004 -1.07579
2 -5.31978 8.01571 0.781054
6 -1.39045 7.05466 1.17145
1 -7.50718 7.42771 3.78664
2 -5.75315 3.40684 4.69332
6 -2.20294 4.88792 5.9527
1 -7.56599 1.74195 6.85253
2 -4.26202 -0.19849 8.45234
4 -1.9591 3.56408 9.4178
1 -4.62266 -2.83819 11.4156
2 -0.385077 -2.57646 12.2207
6 -0.25241 1.60447 12.7719
1 1.44569 -4.57499 14.2787
2 4.53375 -2.36886 14.6469
5 2.66987 1.62826 15.8458
1 7.27576 -3.55548 17.1503
2 7.70082 -0.249254 18.6443
6 3.65185 1.24116 19.257
1 9.88099 0.558288 21.1871
2 7.90794 3.84472 22.3372
3 3.62285 2.87483 23.0458
1 9.04925 5.45727 25.561
2 5.62818 7.24354 26.4269
6 3.31427 3.67567 26.7063
1 5.54088 9.59547 28.9782
2 1.97311 9.33164 29.5793
6 1.3721 5.24599 29.832
1 0.15602 11.3655 32.4682
2 -2.93222 9.33421 32.412
4 -0.595561 5.70821 32.9792
1 -5.97772 9.72857 34.5359
2 -6.55806 5.58768 34.5372
4 -2.91914 4.40582 36.1667
1 -9.45184 4.57204 36.0795
2 -7.99976 0.883646 36.5952
4 -4.95121 2.19254 39.0017
1 -10.1061 -1.98226 38.011
2 -7.11017 -3.81403 39.7751
5 -4.39817 -0.562546 42.4529
1 -7.68728 -6.73658 42.1683
2 -4.01746 -6.44599 44.3138
4 -4.74715 -2.5897 45.2408
1 -3.69496 -8.65417 47.5996
2 -1.52117 -6.22611 49.5599
3 -4.06005 -2.55839 49.9002
1 0.130721 -7.01931 52.8023
2 1.09858 -3.08514 53.3401
12 -3.03336 -2.16041 53.3405
190
Atoms. Timestep: 6000
2 -8.49505 6.22624 51.8257
7 -6.74492 1.63496 50.3816
1 -5.9379 8.85773 51.5394
2 -2.22595 6.52007 51.3634
4 -3.54799 3.6663 49.2253
1 1.32274 7.89542 50.2868
2 2.75594 4.83845 48.9535
3 -0.460631 3.25791 46.4378
1 6.111 4.84142 47.0427
2 5.52978 1.78657 45.0373
6 1.98734 2.97114 43.5462
1 7.80259 0.754303 42.3594
2 5.65012 -1.0902 40.6574
3 2.4395 1.94664 39.6709
1 6.54068 -2.88272 37.9803
2 2.9041 -2.37442 36.302
3 2.38396 2.30318 35.8508
1 2.36751 -3.97923 33.7465
2 -0.777634 -2.03605 33.31
3 0.614946 2.35926 32.6656
1 -3.30301 -3.04048 30.585
2 -4.93885 0.96383 30.5001
5 -1.07118 4.05623 29.3235
1 -7.87562 1.53191 28.135
2 -6.85632 5.41349 27.5764
5 -2.0648 5.66243 26.0997
1 -8.81212 7.00136 24.9659
2 -5.63507 9.52707 23.5386
4 -2.80893 6.5307 22.5544
1 -6.23772 12.0857 21.2268
2 -2.4722 12.3805 19.7904
5 -0.692002 7.98655 19.1109
1 -1.93581 14.6126 16.7714
2 1.08163 12.8016 15.9043
6 -0.622813 8.67143 15.5868
1 3.2685 13.5735 13.3265
2 4.76436 9.84264 12.8512
5 1.58302 6.6576 12.463
1 7.65428 9.23721 10.8803
2 6.65294 5.56287 9.95
3 1.90925 5.67454 8.93112
1 8.59575 3.51811 7.63715
2 5.81489 0.834146 7.33077
5 1.9357 3.13104 6.16994
1 6.08922 -1.29067 5.01448
2 2.48066 -2.14128 4.57866
5 0.255323 1.49013 3.01875
1 1.69428 -5.15998 2.13031
2 -1.63493 -3.58294 0.827252
4 0.897823 -0.212268 0.00136598
1 -3.31704 -4.91497 -1.53756
2 -4.7874 -2.15515 -2.99747
4 -1.13582 -0.344014 -3.4786
1 -6.43757 -2.64097 -5.56659
2 -5.85003 1.1504 -7.07832
4 -1.5863 0.0710953 -7.36017
1 -6.92082 2.10807 -10.0924
2 -4.34859 4.83024 -10.4568
6 -1.17141 2.12827 -10.8975
1 -4.85217 7.31774 -12.5746
2 -1.2536 8.44867 -13.0634
4 -0.126139 4.5682 -13.5624
1 -0.807155 10.7398 -15.8676
2 2.66085 9.32442 -17.1502
3 2.02879 4.66703 -17.4036
1 4.28333 10.6131 -20.0038
2 6.81584 7.15685 -20.6098
4 3.18258 4.52037 -20.7644
1 9.12157 7.2668 -23.6886
2 9.17648 3.9008 -24.357
5 4.68809 2.53682 -24.7783
1 10.6853 2.85822 -27.0964
2 8.2778 -0.550906 -27.8233
6 4.979 1.50922 -28.295
1 9.14292 -2.7028 -30.571
2 5.99491 -4.50396 -30.1535
4 4.211 -0.869402 -30.9336
1 4.95339 -7.03915 -32.0348
2 1.01052 -5.88399 -32.3485
6 1.5735 -2.39738 -33.4563
1 -1.19729 -7.91187 -34.4753
2 -3.45232 -5.18011 -35.5367
6 -0.633093 -2.70129 -36.7443
1 -6.22696 -6.03358 -38.4013
2 -6.2795 -2.30927 -39.3706
6 -1.99982 -1.7049 -40.3424
1 -8.51278 -1.10506 -42.1335
2 -5.93502 2.13066 -43.2572
3 -1.83556 0.470379 -43.9596
1 -6.93349 4.31148 -45.8706
2 -3.4834 4.65506 -47.6296
6 -2.02045 0.746654 -47.677
1 -3.27239 6.00933 -50.4617
2 0.130935 4.28125 -51.6105
13 0.51267 -0.515502 -50.7502
2 5.94671 -6.94582 -49.0164
10 2.46861 -5.27569 -48.8616
1 8.47191 -6.15095 -46.323
2 8.17492 -2.53346 -46.6677
5 2.98455 -1.44716 -46.7686
1 10.2847 0.14223 -44.9698
2 7.22796 3.11503 -44.7416
4 4.3224 0.162224 -43.6765
1 7.39418 6.25217 -42.5837
2 3.64289 6.79795 -41.9219
5 1.92907 2.40175 -40.619
1 2.23762 9.54358 -39.9495
2 -0.666058 7.7071 -38.9306
5 0.478531 2.84165 -37.3622
1 -3.15829 9.24084 -36.775
2 -4.32831 5.9816 -34.7384
5 -0.582495 2.53707 -33.9699
1 -6.15253 6.24767 -31.6001
2 -5.53378 2.38005 -30.9679
3 -0.834853 2.20116 -30.4477
1 -7.23232 0.761366 -28.0235
2 -4.85355 -1.83289 -27.7391
5 -0.446773 0.519286 -27.0943
1 -5.30105 -4.0905 -25.1789
2 -1.39805 -4.71685 -24.4387
6 -0.0903608 -0.41368 -23.588
1 -0.738086 -7.18478 -22.2133
2 2.46347 -5.62747 -20.734
3 1.55798 -1.10028 -20.1652
1 4.39865 -7.36311 -18.3359
2 6.45225 -4.0394 -17.5548
4 3.17516 -1.11436 -16.8026
1 9.0877 -4.28573 -15.1367
2 9.2937 -0.589132 -14.0578
3 4.83131 0.601154 -13.4745
1 11.3768 0.640677 -10.9788
2 9.00405 3.89817 -10.4538
5 4.25122 2.0593 -10.0073
1 9.603 6.40704 -7.51914
2 6.2323 7.82655 -7.46087
3 3.46575 3.56287 -6.78032
1 5.29124 10.3943 -5.45436
2 1.58072 9.7999 -5.63627
3 1.3198 5.01687 -4.20699
1 -0.285896 11.8674 -3.30018
2 -3.01761 9.31651 -2.89528
3 -0.658518 5.32565 -0.95808
1 -5.92439 10.2624 -0.772555
2 -6.4958 6.54427 0.353085
6 -2.70274 5.98135 2.0856
1 -9.0682 6.0036 2.91907
2 -7.18545 3.05012 5.45496
6 -3.60218 4.57839 5.78729
1 -9.00318 1.4579 8.59141
2 -5.86252 -0.350094 9.36382
4 -3.65473 3.85455 9.61557
1 -5.38238 -2.21263 12.1393
2 -1.61942 -1.57242 12.1716
6 -1.69636 1.87064 12.8021
1 0.656322 -3.51902 14.5331
2 3.31917 -0.825997 15.01
5 1.09705 3.49279 15.6316
1 5.85679 -1.44112 17.4336
2 6.72439 2.31254 18.2156
6 2.49994 3.64141 18.96
1 9.25506 3.32692 20.6632
2 7.41485 7.15206 21.37
3 3.08828 6.12423 22.1809
1 8.52119 9.00035 23.7761
2 5.41467 10.9197 24.8218
6 3.34041 7.43593 25.6687
1 5.43858 13.4226 27.1569
2 1.86623 12.4576 28.5247
6 2.36611 8.35275 29.3095
1 0.359578 14.4902 31.3608
2 -2.24696 11.6789 32.4386
4 0.947809 8.43233 32.8501
1 -4.21014 11.943 34.991
2 -5.14582 8.52516 34.7974
4 -1.03837 7.19935 36.0211
1 -7.68563 7.49428 36.5467
2 -6.58999 3.81292 36.7609
4 -2.76869 4.80062 38.5978
1 -8.83082 1.46961 38.3135
2 -5.91296 -1.00886 39.2852
5 -2.96122 1.6059 41.796
1 -6.50394 -4.28942 40.553
2 -3.222 -4.80278 42.8524
4 -3.79969 -1.1298 44.1349
1 -2.6447 -7.78863 45.3289
2 -0.317155 -5.97 47.6213
3 -2.70542 -1.90348 48.0123
1 0.89447 -7.03802 50.642
2 0.465768 -3.50997 52.4722
12 -3.48364 -3.14584 51.4274
190
Atoms. Timestep: 8000
2 -9.63707 2.95072 51.8398
7 -6.99129 -0.59464 50.0366
1 -8.43483 6.48161 50.7942
2 -4.58775 5.68979 51.1305
4 -5.37485 2.45269 48.581
1 -1.68183 8.47214 50.6667
2 1.26577 5.40958 49.7684
3 -1.08565 2.53013 46.8233
1 4.25153 6.47418 48.3701
2 4.58136 3.00381 46.5233
6 1.56893 3.57281 44.29
1 7.78912 2.43479 44.695
2 5.81285 -0.279523 42.0015
3 2.04622 2.73301 40.5941
1 7.13564 -2.13187 38.7082
2 3.78475 -2.50125 37.7481
3 2.60864 1.76824 36.9539
1 2.80757 -4.84139 35.3041
2 -0.117497 -2.99846 33.6688
3 1.76058 1.26811 33.5116
1 -1.66074 -4.11343 31.0881
2 -2.85089 -0.694776 29.4681
5 1.30293 2.16564 29.6442
1 -4.37817 -0.830763 26.4948
2 -4.07568 3.05604 26.1367
5 0.822132 3.84786 26.3019
1 -5.31082 4.30359 23.3397
2 -2.74641 6.86434 22.8526
4 0.460294 4.36665 22.7255
1 -3.1839 9.71145 20.1636
2 0.367145 10.6641 20.1768
5 2.5357 6.76892 19.5684
1 1.55696 13.4297 17.8596
2 5.04963 11.5757 16.5159
6 3.7954 7.4853 16.0731
1 6.36972 12.8167 13.5616
2 8.42469 9.32137 12.6537
5 4.99255 5.97901 12.2213
1 11.0566 9.27248 9.81892
2 10.2456 5.18234 9.13031
3 5.67074 4.71475 8.78727
1 12.2221 3.3812 6.76762
2 9.54842 0.983049 5.59253
5 5.14269 3.06425 5.31434
1 10.3345 -1.54109 3.38577
2 6.77053 -2.55446 2.65205
5 4.19999 1.11973 2.14792
1 5.91629 -5.08768 0.395031
2 2.50346 -3.62411 -0.359878
4 3.5894 0.355153 -1.18103
1 0.201051 -5.1511 -2.812
2 -2.07533 -1.57307 -3.71952
4 1.54825 0.685425 -4.67428
1 -5.16824 -1.59512 -5.88771
2 -4.94587 1.76526 -6.74431
4 -0.824319 2.05911 -7.49209
1 -7.50826 2.74506 -9.25135
2 -5.21383 6.22483 -10.2301
6 -1.97721 4.21585 -10.8243
1 -5.85894 9.30959 -12.6001
2 -1.60014 9.78479 -13.8474
4 -1.14229 5.48551 -14.3698
1 -1.31314 11.7376 -16.8402
2 1.95438 10.1944 -17.6903
3 1.05827 5.87046 -18.2648
1 4.23884 11.552 -20.7073
2 5.8883 8.43989 -21.4343
4 2.62571 6.15408 -21.7501
1 8.2216 8.14048 -24.2748
2 7.98033 4.5628 -24.6054
5 3.52867 3.28318 -25.4711
1 10.4024 2.59083 -27.3546
2 7.77149 0.0814091 -28.8337
6 4.12882 2.31902 -28.9913
1 8.00988 -2.20266 -31.4291
2 4.49652 -3.46447 -31.0834
4 2.86331 0.327244 -32.0538
1 3.57523 -6.08324 -32.9913
2 -0.359846 -5.24604 -33.497
6 0.234897 -1.92065 -34.9649
1 -2.58379 -7.67654 -35.2288
2 -4.85773 -4.42046 -36.9068
6 -1.7297 -2.32623 -38.4319
1 -7.75148 -5.31221 -39.3578
2 -7.5047 -1.73729 -40.898
6 -3.93843 -1.80252 -41.7485
1 -9.47215 -0.720671 -43.231
2 -7.47194 2.04044 -43.8457
3 -3.9047 0.0197946 -45.2888
1 -8.74465 4.44615 -45.8618
2 -5.61674 6.0243 -46.3341
6 -3.88928 2.83854 -47.7985
1 -5.75745 8.93992 -48.6596
2 -1.84716 8.21036 -50.3048
13 -2.11845 3.37854 -51.6515
2 2.82517 -3.0498 -55.128
10 -0.324109 -1.62578 -52.9034
1 5.67084 -3.97943 -53.0248
2 5.5092 -0.705545 -50.7018
5 0.778613 0.214837 -49.2072
1 7.59313 -0.196956 -47.5908
2 5.12163 2.54939 -46.7217
4 1.96312 -0.225363 -45.7787
1 6.16447 4.61037 -44.5693
2 2.7926 6.09606 -43.8627
5 0.0303199 2.0148 -42.3677
1 2.32453 8.83363 -41.62
2 -0.95259 7.60657 -40.1091
5 -0.596927 3.03288 -38.726
1 -2.94133 9.80568 -37.5753
2 -5.08897 6.70108 -36.0717
5 -1.93866 3.1078 -35.2471
1 -7.25484 7.04619 -33.4261
2 -6.76307 3.20712 -32.3212
3 -2.48858 2.89371 -31.667
1 -8.40799 1.00334 -29.801
2 -5.69636 -1.16527 -28.8772
5 -1.46893 1.52938 -28.3358
1 -5.96896 -3.3492 -26.4778
2 -2.10088 -3.94071 -25.8534
6 -1.02216 -0.20877 -25.1016
1 -0.764162 -6.258 -23.6916
2 2.48027 -4.30263 -22.4558
3 1.29628 0.347261 -21.6213
1 4.5444 -5.79979 -19.4044
2 6.19127 -2.07147 -18.8075
4 2.4821 0.0621559 -18.2612
1 8.49911 -1.85307 -16.2525
2 8.09106 1.95067 -16.3403
3 3.73843 2.44356 -14.6636
1 10.2577 3.47581 -14.4182
2 7.81047 6.58015 -13.0451
5 3.68078 4.677 -11.569
1 8.84119 8.82622 -10.8008
2 5.20422 9.81306 -9.83867
3 3.33938 6.37854 -8.30507
1 5.052 12.5416 -7.10105
2 1.74154 11.0986 -5.2412
3 2.883 6.47969 -4.24989
1 0.0235247 12.5417 -2.58821
2 -2.11051 9.16997 -1.47354
3 1.10797 6.07881 -0.867034
1 -3.97685 9.13235 1.40914
2 -3.76956 5.08533 2.28886
6 -0.0307895 4.70966 2.39452
1 -5.24971 3.87511 5.13272
2 -3.4666 1.04207 5.40439
6 -0.203667 3.07351 5.89572
1 -4.39599 -1.09702 7.63575
2 -0.568953 -2.21415 8.78196
4 0.398995 1.5999 9.25126
1 -0.0867573 -4.15017 11.2015
2 3.48273 -2.78478 12.2527
6 2.59472 1.14349 12.8063
1 5.2606 -4.45788 14.6967
2 7.71435 -1.21179 15.1421
5 5.28911 2.09589 16.0706
1 10.2221 -1.61063 18.0097
2 10.6383 2.28261 19.2141
6 6.37891 2.83226 19.6845
1 12.4651 3.21484 22.5821
2 10.3252 5.91561 23.2846
3 6.0533 4.25634 23.5874
1 11.0647 8.16417 25.8157
2 7.86291 9.55411 25.7263
6 5.93462 6.2425 26.6307
1 7.34473 11.9469 27.7677
2 3.64882 11.5922 28.7867
6 3.86755 7.16872 29.7986
1 2.11795 13.0306 31.0183
2 -0.491817 9.81266 31.3724
4 1.97499 7.10868 33.4532
1 -3.85043 10.3229 32.8303
2 -4.33315 6.83182 33.5584
4 -1.06382 6.3168 35.9499
1 -7.19316 5.54399 34.6961
2 -5.55694 2.36184 35.6108
4 -3.18502 4.09039 38.4102
1 -7.34516 -0.442285 36.589
2 -4.69155 -2.16698 37.7542
5 -2.20326 0.777108 41.0749
1 -4.89921 -5.50306 38.7613
2 -1.72182 -5.3489 40.7383
4 -3.30643 -2.19347 42.9164
1 -1.06446 -7.98987 42.4803
2 0.273567 -6.13889 46.0711
3 -3.07805 -2.93515 47.0206
1 1.27152 -8.11599 48.7239
2 0.540661 -5.7343 51.0874
12 -3.05288 -5.40053 49.8514
190
Atoms. Timestep: 10000
2 -9.64452 6.11282 52.4099
7 -6.45121 2.32869 52.1541
1 -8.59449 8.85858 51.3505
2 -4.70908 7.86809 50.8224
4 -5.94665 4.4073 48.8393
1 -2.91206 10.1335 48.7151
2 -0.0913552 7.38813 47.8148
3 -2.79378 3.869 45.9237
1 2.25149 8.1915 45.6982
2 2.78109 4.2615 44.4921
6 -1.0757 3.73663 42.5784
1 5.64303 3.62525 42.6767
2 4.09284 0.449353 41.475
3 0.194211 1.83985 39.4137
1 5.87681 -1.31111 39.3232
2 2.55547 -2.6905 37.001
3 0.419821 1.52162 35.7256
1 2.9464 -5.12889 33.8778
2 -0.069896 -4.20675 32.5758
3 0.0976666 0.255192 32.3098
1 -1.68342 -5.84333 29.4697
2 -4.01083 -3.26224 28.9563
5 -1.41785 0.692467 28.9181
1 -6.4783 -3.0762 26.616
2 -6.03514 0.987886 25.9386
5 -1.50378 2.38132 25.4608
1 -8.14625 2.28607 23.4026
2 -5.88551 5.56314 22.386
4 -2.38628 3.19411 22.1623
1 -6.78535 7.83683 19.9314
2 -3.31848 9.00324 19.1812
5 -0.658361 5.20213 18.7021
1 -2.59938 11.808 16.8015
2 0.560015 10.3775 15.201
6 -0.391306 6.23745 14.8676
1 2.95684 12.0682 12.6886
2 5.20909 9.00899 12.2837
5 2.66105 5.35474 11.5988
1 8.12911 8.97687 9.89648
2 8.09625 5.04816 9.79838
3 3.72736 4.3515 8.35807
1 10.5117 3.29099 7.35138
2 8.13171 0.575138 6.18529
5 3.93351 2.38816 5.254
1 9.19531 -1.975 3.56262
2 5.2455 -3.13029 2.70945
5 3.12828 1.25979 1.70991
1 4.33896 -6.00194 0.00234015
2 0.532477 -4.50893 -0.580076
4 2.16414 -0.804343 -1.28788
1 -1.86437 -5.94632 -3.15277
2 -3.79776 -2.97541 -3.83159
4 -0.0897 -0.901272 -4.8899
1 -6.45325 -3.41206 -6.43577
2 -6.32786 -0.0901201 -7.76059
4 -2.43481 -0.363613 -8.46381
1 -8.48418 0.611562 -10.2752
2 -6.23088 3.55157 -12.0391
6 -3.28135 1.17086 -12.5107
1 -7.02772 4.96115 -14.8539
2 -3.65954 6.05877 -16.0846
4 -2.48391 2.16018 -16.1013
1 -3.33091 7.84289 -19.2009
2 0.369382 6.37886 -19.8549
3 -0.00347286 1.85551 -19.7183
1 2.36011 7.7825 -21.8993
2 5.08569 4.58042 -22.0617
4 1.60128 1.59776 -23.1924
1 8.02854 4.58859 -24.6428
2 8.34368 0.77794 -24.4797
5 4.17749 -1.32329 -25.453
1 10.5282 -0.387172 -26.5177
2 8.69884 -3.45437 -28.0567
6 4.90334 -1.18818 -28.9105
1 9.99774 -5.08091 -31.1576
2 6.33056 -6.4873 -32.0295
4 4.19503 -2.35875 -32.3562
1 5.77961 -8.96696 -34.7911
2 1.92335 -8.24529 -35.1858
6 2.15624 -3.98519 -35.7536
1 -0.109399 -9.96161 -37.3703
2 -2.63388 -6.96515 -37.7927
6 -0.00451977 -4.05602 -39.273
1 -5.43224 -7.35266 -39.8725
2 -6.26503 -3.58314 -40.5617
6 -2.66934 -2.59196 -42.0169
1 -8.79162 -3.30651 -43.0989
2 -8.11127 0.560252 -43.8706
3 -3.28483 0.321601 -44.7759
1 -10.0388 2.24967 -46.6021
2 -6.49659 4.4728 -47.7823
6 -4.19154 1.50311 -48.5219
1 -6.89485 6.82593 -50.0909
2 -3.2122 6.56387 -51.3433
13 -2.23779 2.31057 -52.244
2 3.95433 -3.47747 -54.3586
10 0.374923 -2.39197 -52.769
1 6.70855 -2.62038 -52.2036
2 5.08308 1.02008 -51.6609
5 0.915189 0.26803 -49.5738
1 7.35487 3.20023 -49.3757
2 4.52034 5.107 -47.8409
4 2.28435 1.64677 -46.3532
1 5.18346 7.57323 -45.3325
2 1.55723 6.92436 -43.4481
5 0.219798 1.98766 -42.4698
1 1.03435 8.63319 -40.3358
2 -1.3833 6.05002 -38.9236
5 -0.00843907 1.51117 -38.926
1 -3.53903 6.88222 -35.9034
2 -4.76937 3.32854 -35.7213
5 -1.11764 0.672663 -35.5606
1 -7.36359 2.68882 -33.5814
2 -6.32801 -0.724232 -32.8122
3 -1.4344 -0.295019 -32.131
1 -7.95853 -2.57127 -30.4037
2 -4.78719 -5.06028 -29.6297
5 -0.464407 -2.61783 -28.7502
1 -5.30226 -8.31603 -27.428
2 -1.78071 -8.72177 -25.9638
6 -0.508981 -4.2908 -25.4856
1 -1.08104 -10.6962 -22.7224
2 2.07701 -8.18679 -21.319
3 1.08596 -4.0481 -21.7823
1 3.63468 -8.72853 -18.5297
2 5.21916 -5.34805 -18.6085
4 1.67888 -3.52565 -18.2603
1 7.44233 -4.75404 -16.6681
2 7.19039 -0.968246 -16.2691
3 2.78057 -0.576471 -15.4133
1 9.06023 0.484205 -14.0466
2 6.86505 3.16301 -13.6455
5 2.03756 1.73589 -12.561
1 7.83847 6.34696 -11.6012
2 4.07136 7.63967 -10.7285
3 1.97153 3.66379 -9.00078
1 3.82296 10.674 -8.29686
2 0.551481 9.49973 -7.07914
3 0.830418 5.08015 -5.71953