190
Atoms. Timestep: 0
2 -2.78975 6.61147 -0.768648
7 -0.440158 2.4253 0.012213
1 -5.03528 7.21152 1.55606
2 -5.71893 3.62247 2.30245
4 -1.67009 2.32209 3.34709
1 -8.58801 2.78744 5.24134
2 -7.08895 -0.508309 6.2242
3 -2.29646 0.09256 6.79462
1 -8.45215 -1.86961 8.54795
2 -5.43746 -3.75554 9.58525
6 -2.38775 -0.77437 10.1333
1 -5.74501 -6.60558 12.9046
2 -2.09749 -6.49186 13.7817
3 -0.736756 -1.82248 13.7886
1 -0.636376 -8.47567 16.5231
2 2.2934 -6.19888 17.0288
3 0.720169 -1.59684 17.0466
1 4.81439 -6.92415 19.6179
2 5.93022 -3.36735 19.9716
3 2.00395 -0.50575 20.2011
1 8.32544 -2.78019 22.9102
2 7.31283 0.759347 23.4778
5 2.37696 1.36459 23.5471
1 8.84811 2.71347 26.1287
2 6.0285 5.14964 26.6773
5 1.57481 2.93855 26.7606
1 6.20236 7.54989 28.914
2 2.50877 8.13493 29.307
4 1.26835 4.0013 30.0478
1 1.65556 10.839 32.6601
2 -1.63174 9.28093 33.4196
5 -1.34711 4.31592 33.4755
1 -3.70794 10.7298 35.4672
2 -5.57909 7.59403 36.0623
6 -2.46167 4.69865 36.6833
1 -8.77831 7.93063 39.4557
2 -8.59719 4.32216 40.1832
5 -3.86411 2.80124 40.3221
1 -10.8883 2.50225 42.5057
2 -8.56168 -0.370305 43.0715
3 -4.05707 1.40508 43.5322
1 -9.54877 -2.60412 46.0293
2 -6.06747 -3.63594 46.8591
5 -2.9034 0.198558 47.0029
1 -5.42484 -5.89015 49.6355
2 -1.89445 -4.80745 50.3774
5 -1.35665 0.136593 50.3274
1 -0.11678 -6.16875 52.7811
2 2.33943 -3.35898 53.2388
4 -0.511178 -0.06546 53.6849
1 4.92852 -3.56484 56.1086
2 5.37335 0.153776 56.4294
4 1.16948 1.24527 56.9856
1 7.73117 1.66144 59.1027
2 5.96916 4.97745 59.275
4 1.93167 3.50266 60.1104
1 7.37488 7.29294 61.8063
2 4.1287 9.01237 62.3268
6 1.38996 5.80746 63.1722
1 3.63425 12.0355 64.8969
2 -0.10549 11.6855 65.3555
4 -0.175999 7.44754 66.4548
1 -2.08218 14.1845 68.0786
2 -4.8269 11.7381 68.8239
3 -2.82134 7.38587 69.656
1 -7.0863 12.5015 71.086
2 -8.05877 8.97311 71.7998
4 -4.15062 7.37054 72.9539
1 -11.0573 8.72943 74.9987
2 -9.93594 5.37877 76.1502
5 -4.98531 5.1331 76.5577
1 -11.743 3.66886 78.2511
2 -8.88605 1.5352 79.2387
6 -5.70266 4.36849 79.8105
1 -9.13248 -0.987425 82.3313
2 -5.43676 -1.15218 83.1282
4 -4.71119 3.15167 83.4785
1 -4.62216 -3.15579 86.1389
2 -1.57452 -1.17319 86.878
6 -2.97793 2.89111 86.9294
1 0.537786 -1.88369 89.6259
2 2.08256 1.54253 90.0793
6 -1.31551 4.17643 90.1386
1 4.34234 2.22992 92.7137
2 3.77219 5.96007 93.0168
6 -0.508356 6.30828 93.2238
1 5.88879 8.29113 96.0698
2 3.3295 11.0315 96.2317
3 -1.05591 8.93391 96.3847
1 3.7941 13.0903 98.39
2 0.212093 13.9735 98.7211
6 -1.79129 10.2474 99.4897
1 -0.565747 17.4002 101.806
2 -4.04084 16.3067 102.364
13 -4.25906 11.3648 102.876
2 -10.0515 4.25167 103.115
10 -6.26265 6.23057 102.652
1 -12.901 4.37408 99.4099
2 -11.7517 7.74313 98.4549
5 -6.79661 8.05045 98.7519
1 -12.8987 9.50158 95.9284
2 -9.95344 11.8072 95.5456
4 -6.78313 8.79202 95.3639
1 -10.2682 14.2287 91.896
2 -6.58985 14.4498 91.4138
5 -4.38873 10.0265 91.983
1 -5.10085 16.2357 88.6218
2 -1.84366 14.3499 88.4767
5 -2.45426 9.43473 88.9239
1 0.536917 15.077 85.8296
2 2.23604 11.7173 85.7219
5 -0.986217 7.93376 85.917
1 5.22537 11.1096 83.566
2 4.77505 7.39982 83.4254
3 0.029198 6.47605 82.8947
1 6.89584 5.68283 80.7295
2 4.50715 2.88611 80.1411
5 -0.19041 4.43908 79.6335
1 5.49017 0.340562 78.3639
2 2.01859 -0.699659 77.6183
6 0.099607 2.9965 76.5491
1 1.30136 -3.95663 74.7705
2 -2.12772 -2.7908 73.7862
3 -1.8869 2.01036 73.0467
1 -3.73443 -4.3269 71.364
2 -5.92649 -1.43094 70.5201
4 -2.85436 1.56708 69.6538
1 -8.70481 -1.96575 67.4273
2 -8.8085 1.65787 66.4609
3 -4.2392 3.29349 66.1397
1 -10.8668 2.48367 63.3314
2 -8.89998 5.51079 62.4141
5 -3.98923 4.74184 62.5797
1 -10.0181 7.87768 59.749
2 -6.62253 9.3294 59.1592
3 -3.39066 5.69641 59.26
1 -6.05218 11.7572 56.4399
2 -2.41303 10.9585 56.062
3 -1.85941 6.12646 56.0558
1 -0.355664 12.698 53.5411
2 2.18807 9.96334 53.2686
3 -0.123289 5.6953 52.9582
1 4.1991 10.4455 51.0699
2 4.89724 6.84873 50.5243
6 1.0568 5.06559 49.7774
1 7.31624 5.83731 48.1487
2 6.00453 2.3617 47.4193
6 1.82721 3.00977 46.6319
1 7.63598 -0.008235 44.6429
2 4.60429 -2.18277 44.0087
4 1.7382 1.02049 43.1745
1 5.0578 -4.66266 41.2912
2 1.44797 -4.6803 40.4339
6 0.509204 -0.525566 39.8459
1 0.221139 -7.57492 36.9724
2 -2.79797 -5.60651 36.2018
5 -1.7508 -0.744886 36.1511
1 -5.05518 -6.71929 34.1353
2 -6.41563 -3.33333 33.5268
6 -2.88442 -0.953415 32.9338
1 -9.47973 -2.75542 30.4425
2 -8.6311 0.843607 29.7985
3 -3.7886 1.1754 29.4935
1 -10.1076 2.1135 27.4924
2 -7.45078 4.59489 26.7809
6 -3.87438 2.27393 26.2238
1 -7.888 6.99807 24.221
2 -4.24868 7.71244 23.4606
6 -2.53828 3.79859 22.9667
1 -3.1141 10.1558 20.5056
2 0.355423 8.73336 19.9955
4 -0.793263 4.5426 19.4571
1 2.69293 10.0687 17.2205
2 4.69968 6.90459 16.9236
4 1.39118 4.124 16.2181
1 7.56357 6.59159 14.3457
2 7.40248 2.84314 14.121
4 3.15505 2.45345 13.13
1 10.068 1.15926 11.0645
2 7.88278 -1.77283 10.402
5 3.11388 -0.444191 9.92205
1 8.63323 -4.24674 8.3746
2 5.14143 -5.53729 7.84676
4 3.21625 -1.76971 6.71878
1 4.64681 -8.61009 5.03953
2 1.13313 -7.65532 4.13628
3 0.991764 -2.85237 3.38291
1 -0.421541 -9.31687 1.76356
2 -2.84812 -6.59652 0.977968
12 -0.035655 -3.38003 0.019816
190
Atoms. Timestep: 2000
2 -2.56921 6.17947 -1.12977
7 -0.440956 2.22638 -0.182159
1 -5.37014 6.81484 1.14371
2 -6.00838 3.27738 1.9047
4 -1.95201 2.02173 3.15473
1 -9.05909 2.21757 5.0331
2 -7.38497 -0.594157 6.20439
3 -2.44895 0.379832 6.79116
1 -8.50981 -1.87229 8.27414
2 -5.08648 -3.76227 9.6493
6 -2.30625 -0.435002 10.1255
1 -4.92772 -6.41052 13.1007
2 -1.46975 -5.81985 13.8455
3 -0.424352 -1.13661 14.0036
1 0.0680337 -7.68113 16.2765
2 2.97971 -5.45398 16.8444
3 0.986329 -0.673253 17.4346
1 5.73446 -6.26017 18.6235
2 6.96681 -2.4351 19.1561
3 3.22976 0.540286 19.8299
1 9.73938 -2.10054 22.2343
2 9.15446 1.68672 22.8739
5 4.10368 2.49357 22.9813
1 10.9805 3.32223 25.7038
2 8.38959 5.86044 26.3701
5 4.13023 4.26743 26.3006
1 8.96934 7.70201 28.4527
2 5.62568 8.7397 29.2499
4 4.07955 4.7731 29.8888
1 5.46852 11.1154 33.1661
2 2.04197 10.0158 33.8276
5 1.79206 5.0114 33.4319
1 0.131239 11.5765 35.9749
2 -1.86324 8.65103 36.6667
6 1.17794 5.32807 36.9835
1 -4.84014 9.18451 40.2173
2 -4.81106 5.75644 40.9056
5 -0.176411 4.14279 40.9265
1 -7.40302 4.017 43.1024
2 -5.39038 1.37413 43.762
3 -0.558654 3.12297 44.1995
1 -6.51059 -0.768628 46.8183
2 -2.87325 -2.04791 47.9236
5 0.386236 1.39044 47.5592
1 -2.27069 -4.15871 50.7758
2 1.23664 -3.21769 51.51
5 1.67332 1.39847 51.0641
1 2.69797 -4.28287 53.924
2 4.86404 -1.29809 54.4186
4 1.82059 1.50896 54.4251
1 7.31013 -0.793965 57.789
2 7.35381 2.89008 57.8287
4 3.22739 3.87637 57.4294
1 9.29735 5.20348 60.3173
2 7.16444 8.27771 59.9143
4 3.14273 6.42098 60.3326
1 7.90802 10.7094 62.8689
2 4.44967 11.8557 62.9781
6 2.12937 8.29098 63.4381
1 3.18191 14.7351 66.0902
2 -0.782911 14.5613 65.614
4 -0.885362 10.3137 66.3447
1 -3.34229 16.6845 68.5062
2 -6.116 13.6899 68.7522
3 -3.73861 9.04306 68.9107
1 -8.73613 13.7472 70.8187
2 -9.81637 9.95205 70.8441
4 -5.74444 8.14997 71.8501
1 -13.2484 9.24391 73.9212
2 -11.6729 5.78011 75.0862
5 -6.36055 5.67573 75.3924
1 -13.7097 3.6042 77.2772
2 -10.5248 1.57409 77.9493
6 -7.31467 4.56683 78.3834
1 -10.4515 -1.31916 80.9347
2 -6.71337 -1.32043 81.5974
4 -5.99615 3.29469 82.219
1 -5.4944 -3.66754 84.4918
2 -2.80784 -1.54771 85.5972
6 -4.37722 2.69403 85.8696
1 -0.709962 -2.25356 88.0027
2 0.726362 1.26173 88.7122
6 -2.56297 3.7343 89.0217
1 3.36666 1.73418 90.9476
2 3.02211 5.05379 91.7685
6 -1.35319 5.4602 92.4011
1 5.24055 6.57009 94.7075
2 3.17892 9.78027 95.6857
3 -1.72099 7.41982 95.9587
1 4.06282 11.4148 98.0276
2 0.32921 12.231 98.975
6 -1.79559 8.4065 99.1976
1 0.00290073 15.0442 102.936
2 -4.02407 14.3879 103.091
13 -4.72574 9.07393 102.319
2 -10.2278 2.02099 102.919
10 -6.69351 3.95497 102.11
1 -13.8217 2.98233 100.27
2 -12.303 6.68493 99.0319
5 -7.02683 6.91341 98.8229
1 -13.6616 8.9895 96.8139
2 -10.3214 11.0866 96.3082
4 -7.38511 8.00053 95.4616
1 -10.5257 13.8865 92.6799
2 -6.74104 13.9918 92.1796
5 -4.96279 9.55483 92.0866
1 -4.85692 16.1851 89.6508
2 -2.03588 13.9512 89.145
5 -3.31725 9.27364 88.7218
1 0.226928 14.8513 86.1819
2 1.60933 11.2539 85.3817
5 -2.08358 7.76021 85.4449
1 4.14584 10.8098 83.1558
2 3.6168 6.85591 82.7882
3 -0.851851 6.13706 82.5672
1 5.35488 5.14144 79.8759
2 2.91089 2.50039 79.5292
5 -1.89855 4.48263 78.9976
1 3.72012 -0.059989 77.6216
2 0.073912 -0.707658 76.6408
6 -1.52186 3.26677 75.7962
1 -0.910844 -3.49335 73.6239
2 -3.9572 -1.62096 72.3569
3 -3.39093 3.01604 72.1706
1 -5.56982 -2.91743 69.5196
2 -6.91899 0.223511 68.4827
4 -3.69094 3.07712 68.5992
1 -8.98816 -0.168303 64.7618
2 -8.62264 3.78083 64.1344
3 -4.18272 5.56652 64.9463
1 -10.0094 4.90724 60.9927
2 -7.68582 7.65616 60.1652
5 -2.74492 6.91552 61.6085
1 -8.58973 10.3527 57.447
2 -4.8962 11.6186 57.0069
3 -1.84826 7.87167 58.2534
1 -3.98758 13.5908 54.2597
2 -0.371481 12.6274 54.0747
3 0.0909053 8.22972 55.2382
1 2.2273 14.1152 51.4327
2 4.74146 11.3788 51.9556
3 2.08943 6.90796 52.3265
1 6.93608 11.5402 49.8746
2 7.89796 8.42137 50.4194
6 4.4126 6.27998 49.7171
1 10.5095 7.28623 48.7394
2 9.26361 3.55039 47.9343
6 5.32166 3.85889 46.8171
1 11.349 1.10268 44.9319
2 8.43582 -1.4168 44.3352
4 5.40746 1.92138 43.3865
1 8.88412 -3.99471 41.6619
2 4.815 -4.09453 40.67
6 3.83192 0.357019 40.1563
1 3.73495 -6.9717 36.9437
2 0.537769 -5.31158 36.2515
5 1.46909 -0.411187 36.6188
1 -1.50998 -6.38794 34.0056
2 -3.02229 -2.89958 34.2479
6 0.297071 -0.378154 33.1068
1 -6.63266 -1.87947 31.9655
2 -5.53748 1.74407 31.1551
3 -0.827313 1.89213 29.8454
1 -7.40049 3.313 28.8784
2 -4.94818 6.2388 28.0771
6 -1.2862 4.0539 26.9097
1 -5.86772 9.11845 25.5179
2 -2.39707 9.15866 23.5927
6 -0.889516 4.99382 23.1332
1 -1.46023 11.3064 20.2377
2 1.47635 9.77655 19.6219
4 0.139345 5.76136 19.4973
1 3.3723 10.6251 16.6972
2 5.08529 7.70283 16.5973
4 1.72077 5.02477 16.0095
1 7.99322 7.22209 13.8008
2 7.81033 3.35466 13.4404
4 3.26172 3.34181 12.6624
1 10.2308 1.82475 10.418
2 8.06137 -1.26267 10.0564
5 3.1289 -0.104909 9.9044
1 8.68277 -4.54185 8.46065
2 4.90848 -5.43175 7.66716
4 3.33357 -1.75868 6.89974
1 4.14833 -9.00987 6.02435
2 1.45973 -7.51939 4.07488
3 1.31229 -2.75883 3.39756
1 -1.45192 -9.2144 3.6382
2 -2.26872 -7.89185 0.491907
12 0.00202991 -3.95807 0.321871
190
Atoms. Timestep: 4000
2 -0.898487 9.13515 -0.374375
7 0.766133 4.7872 0.687545
1 -3.10239 10.079 2.25355
2 -4.35239 6.4674 3.24393
4 -0.749779 4.84008 3.85655
1 -7.11373 6.03182 6.18157
2 -5.97971 2.51111 7.13862
3 -1.05315 2.47381 7.57845
1 -7.50535 1.42281 9.43753
2 -4.52479 -1.14515 10.2615
6 -0.89611 1.50841 10.8552
1 -5.04475 -3.8417 13.239
2 -1.27666 -4.51439 14.0472
3 0.477069 -0.322154 14.4149
1 -0.268835 -7.20924 17.1689
2 2.64673 -5.73432 17.6353
3 1.97822 -1.19942 17.5563
1 4.93936 -6.86672 20.2016
2 6.63124 -3.58756 20.4812
3 2.87165 0.109025 20.9879
1 9.48075 -3.00195 22.8491
2 8.83202 0.763694 23.4172
5 4.0062 1.9116 24.0891
1 11.1879 3.25284 24.9741
2 8.74183 5.49165 26.4567
5 4.4496 3.32734 27.4243
1 9.38221 7.82758 28.7101
2 5.87044 8.72127 29.7537
4 4.60939 4.69357 30.705
1 6.02165 10.9816 33.1887
2 2.34204 10.4379 33.8352
5 1.68559 5.56694 34.3014
1 0.515239 12.499 36.0531
2 -1.69219 10.2555 36.6052
6 0.841497 6.42123 37.5544
1 -4.69771 11.8177 40.1261
2 -5.34574 8.27828 40.8937
5 -0.566829 5.74284 41.5498
1 -8.37168 6.8954 43.3999
2 -6.19272 3.71996 44.7136
3 -1.59618 4.65202 44.9932
1 -7.5138 1.34658 47.3129
2 -4.23995 -0.0814785 48.3535
5 -0.71907 3.1599 48.4733
1 -4.07665 -2.79482 50.8613
2 -0.733689 -2.38306 51.7862
5 0.717848 2.71874 51.7307
1 0.402386 -3.6775 54.2383
2 3.10358 -1.35318 54.9614
4 0.887697 2.24481 55.1555
1 5.42913 -2.02091 58.2362
2 6.5448 1.72938 58.7116
4 2.70067 3.40732 58.2785
1 8.60874 3.02103 62.1263
2 7.44472 6.72749 61.9809
4 2.83851 5.57872 61.4658
1 8.62055 8.71317 64.8726
2 5.59917 10.9138 64.9374
6 2.22999 8.06018 64.4436
1 4.90462 13.5371 67.3873
2 0.968652 13.758 66.8833
4 -0.0768306 9.46822 67.3557
1 -1.45009 16.8061 68.9962
2 -4.56359 15.0275 69.4526
3 -3.31432 10.2589 70.1063
1 -6.99738 15.8482 71.4095
2 -8.38273 12.556 72.2305
4 -4.90634 10.9275 73.3478
1 -11.6276 12.9345 74.9786
2 -10.9064 9.67314 76.1451
5 -6.27496 8.85331 77.0681
1 -13.315 7.98182 78.4701
2 -11.0617 5.98756 79.1875
6 -7.4209 8.29047 80.3535
1 -11.5393 2.64506 81.6105
2 -7.8374 1.96743 82.7088
4 -6.90235 6.36324 83.8205
1 -7.24544 -0.548898 85.9429
2 -4.01603 1.52251 87.4667
6 -5.32735 5.57895 87.3186
1 -2.34707 0.766948 90.3241
2 -0.829645 4.20285 91.7098
6 -4.27062 7.13836 90.9312
1 0.430914 4.30442 94.962
2 -0.183988 7.84887 95.759
6 -4.28937 8.64526 94.4653
1 0.911503 9.54484 99.7653
2 -1.09162 12.4404 99.351
3 -5.49581 10.9211 97.7351
1 -1.12524 14.0306 101.826
2 -4.47968 14.8557 101.562
6 -6.93967 10.799 100.712
1 -6.28176 17.4515 105.394
2 -9.7309 16.8044 104.374
13 -10.1929 11.6498 103.944
2 -16.1997 5.60216 100.447
10 -12.2805 7.35533 101.576
1 -18.0303 7.37093 96.1442
2 -16.3333 10.5926 96.4575
5 -11.4883 9.59872 98.0537
1 -16.5947 12.9815 94.2593
2 -13.3879 14.7361 94.6928
4 -10.6993 11.3094 95.1864
1 -12.6931 17.3885 90.9142
2 -9.16474 17.6179 91.05
5 -7.30503 12.9646 92.1863
1 -6.91209 19.1715 88.4595
2 -4.03228 17.1681 88.8306
5 -4.96341 12.4006 89.4202
1 -1.53985 17.5468 86.298
2 0.202936 14.5986 87.095
5 -3.00268 10.6636 86.8657
1 3.8719 13.6597 85.818
2 2.99922 9.80697 85.1518
3 -1.68178 9.34815 83.9719
1 5.02578 8.29812 82.6943
2 2.31919 5.54775 81.5008
5 -2.03367 7.72695 80.4142
1 3.2967 2.86234 79.4933
2 -0.00578409 2.0045 78.5129
6 -1.40219 5.92478 77.5215
1 -0.943077 -1.09705 75.721
2 -4.30299 0.877319 74.5779
3 -3.61611 5.33083 74.0532
1 -6.09833 -0.670206 71.7397
2 -7.58269 2.35771 70.3499
4 -3.99984 4.59665 70.6935
1 -9.42271 1.589 66.605
2 -8.78835 5.04194 65.3869
3 -4.19302 5.81774 65.8045
1 -10.0295 5.6751 61.265
2 -7.64369 8.4523 60.7482
5 -2.99351 7.41144 62.4912
1 -8.23963 11.0568 58.0793
2 -4.68566 12.542 58.359
3 -1.72248 8.54324 59.3537
1 -3.50895 14.8297 56.197
2 0.371224 13.4326 56.0348
3 0.677867 8.53738 56.8657
1 2.81676 14.734 53.7064
2 4.91979 11.572 54.0137
3 2.03128 7.69035 53.5541
1 7.70444 11.6839 52.2005
2 7.85455 7.96128 51.9699
6 4.32786 6.6965 51.0845
1 10.1673 6.09233 49.9233
2 8.24395 3.39739 49.2013
6 4.67438 4.90034 47.8258
1 9.46129 0.762734 46.8728
2 6.10406 -1.10804 46.1801
4 4.00681 2.25948 45.0777
1 6.43465 -3.6015 43.6223
2 2.82293 -3.18064 42.4606
6 2.7682 1.32565 41.4759
1 1.78679 -6.2451 39.4013
2 -0.80663 -3.89429 38.171
5 0.637911 1.0257 37.5993
1 -2.81776 -4.72259 36.1329
2 -3.77894 -1.65862 35.0889
6 -0.144546 0.38742 34.3989
1 -7.05901 -0.957471 32.2251
2 -5.53704 2.37687 31.108
3 -0.857842 1.8491 30.4773
1 -6.89519 3.78001 29.2795
2 -4.45931 5.68267 28.6869
6 -1.32588 3.21283 27.4566
1 -4.73563 8.37728 26.8345
2 -1.34971 8.63382 25.675
6 -0.650944 4.97271 24.0741
1 0.168429 11.4957 23.4136
2 3.27792 9.34651 22.1113
4 1.35127 5.88867 20.6949
1 5.34112 10.7833 19.4246
2 6.95109 7.46069 18.3336
4 3.26168 4.6968 17.4919
1 9.75846 7.48792 15.6342
2 8.99647 3.84514 14.6121
4 4.65182 3.80813 13.7257
1 11.6203 2.58284 11.4504
2 9.12443 -0.456096 10.6147
5 4.55156 1.27908 10.4187
1 9.67314 -3.13663 8.49096
2 5.6269 -4.14807 7.77757
4 3.85564 0.0619471 7.19771
1 5.10764 -6.5397 4.4991
2 1.85161 -5.67662 3.54134
3 1.79654 -0.439072 3.54135
1 0.397258 -6.86102 0.549714
2 -1.54493 -4.01619 0.032136
12 1.50628 -1.0346 0.16841
190
Atoms. Timestep: 6000
2 2.71502 10.9137 4.89946
7 5.13541 6.10618 4.5957
1 -0.584288 10.8098 5.67976
2 -1.79965 7.19187 5.11118
4 1.99286 5.03424 5.81653
1 -5.23726 5.4417 7.71381
2 -3.90012 1.87907 8.08837
3 0.743971 2.24952 9.05854
1 -5.43116 0.272596 10.2058
2 -3.0282 -1.88002 10.9735
6 0.452895 0.569504 11.9662
1 -3.59654 -5.32158 13.8952
2 -0.0884333 -5.42341 14.8199
3 1.76954 -1.31682 15.7794
1 1.3587 -8.26766 17.132
2 4.56608 -5.95197 18.4816
3 3.43147 -1.57174 18.8299
1 6.62093 -7.04001 21.0729
2 8.21228 -3.72653 21.4579
3 4.84623 -0.619253 21.9779
1 10.7728 -3.31378 24.1202
2 9.66242 0.256444 25.0857
5 4.63175 0.905859 25.5163
1 11.1774 2.05717 28.4111
2 8.25557 4.42142 29.1103
5 3.3246 2.25928 28.8531
1 8.57944 6.76796 31.5435
2 4.72104 7.72384 31.8617
4 3.25095 3.68927 32.3854
1 3.55 10.0718 34.9709
2 0.343337 8.72975 34.9963
5 0.266876 3.94078 35.2964
1 -2.23524 10.7737 36.1335
2 -4.66435 7.69669 36.4203
6 -2.2582 4.74215 37.568
1 -8.56019 8.52921 39.3139
2 -8.42826 4.82821 40.7365
5 -3.65504 3.18841 41.5669
1 -11.021 3.31143 42.7427
2 -8.64825 0.418527 44.6069
3 -4.08224 2.1543 45.0019
1 -10.0028 -0.718378 47.9391
2 -6.287 -1.83716 49.1361
5 -2.9148 1.3242 48.6152
1 -5.91285 -3.3891 52.0983
2 -2.40087 -2.2908 52.4798
5 -1.48713 2.67108 51.8536
1 -0.435552 -3.44083 54.8304
2 2.07566 -0.463324 54.8688
4 -0.840152 3.21932 55.1615
1 4.96734 -0.638176 57.831
2 5.56712 3.31453 57.8474
4 1.58262 4.64187 57.9081
1 7.83987 4.84584 60.1814
2 6.31145 8.08508 60.6448
4 1.73505 6.88085 61.2121
1 7.89723 10.3154 63.4797
2 4.88292 12.1584 63.6705
6 1.41117 9.45199 64.0201
1 4.29079 15.4006 66.3184
2 0.633875 15.3382 65.9318
4 0.108705 11.3863 67.0695
1 -2.0011 18.0693 68.2057
2 -4.71089 16.0802 67.7251
3 -3.03775 12.1826 69.4829
1 -7.56195 17.1587 69.4716
2 -8.40492 13.5591 71.0364
4 -4.78295 12.6592 72.6408
1 -11.7593 13.9437 73.8
2 -10.9828 10.8387 75.1993
5 -5.81219 10.3487 76.0293
1 -12.8302 9.67522 77.1824
2 -10.1407 7.2948 78.0672
6 -6.70624 9.84813 79.2221
1 -10.6286 4.6809 81.3229
2 -6.91218 4.73386 82.0896
4 -6.62763 8.72686 83.1674
1 -5.56153 2.04371 84.5684
2 -2.63498 4.34255 85.6566
6 -4.55526 8.0691 86.9052
1 -0.0695829 3.39312 87.921
2 0.79762 6.78641 89.8465
6 -3.04911 8.82669 90.3854
1 2.96158 7.08637 92.5707
2 1.78803 10.6739 94.1438
6 -2.75556 10.8589 93.6021
1 2.73942 11.6216 98.1625
2 -0.213607 14.554 98.1865
3 -4.23522 12.4214 96.9239
1 -0.326562 15.8724 100.924
2 -3.85776 16.7642 100.342
6 -5.61526 13.3325 99.917
1 -5.74306 19.7652 103.482
2 -9.40879 18.406 102.845
13 -9.0294 13.0972 102.959
2 -13.6165 5.3992 99.6317
10 -10.3375 8.23568 101.128
1 -16.0428 6.72316 95.674
2 -15.265 9.95192 95.5387
5 -10.6302 11.1249 97.9242
1 -15.6876 11.6136 93.1667
2 -13.7062 14.1439 94.1669
4 -9.76181 11.7115 94.5317
1 -13.7702 17.1904 90.5912
2 -10.3111 18.2341 90.9813
5 -7.24435 14.2413 92.231
1 -8.7969 20.2447 88.545
2 -4.98884 19.0365 88.6361
5 -4.72656 14.1951 89.385
1 -2.70497 20.4188 86.2883
2 -0.972147 17.575 85.566
5 -3.558 13.6508 86.005
1 2.01454 17.3427 83.9422
2 2.00787 13.437 84.2724
3 -2.08715 12.2031 83.0031
1 4.74865 11.0516 82.3958
2 2.60348 8.30534 81.8169
5 -1.28954 9.84922 80.0566
1 3.80371 5.55948 80.4094
2 0.493582 4.4107 79.0824
6 -1.14879 7.77368 77.4595
1 0.143828 1.27875 75.8059
2 -3.16703 2.44363 74.6798
3 -2.32196 7.54053 73.6472
1 -4.88457 0.567469 71.9634
2 -6.80942 3.81141 70.7688
4 -3.37515 6.31515 70.1998
1 -9.81519 3.24927 67.9496
2 -9.62683 6.79468 66.3783
3 -4.72272 7.92108 66.1712
1 -11.467 7.78033 63.38
2 -8.83005 10.539 61.9695
5 -3.84597 9.32537 62.5594
1 -9.74 12.845 59.3079
2 -6.16568 13.8011 58.4898
3 -2.78865 9.74505 59.2734
1 -5.25863 15.5399 55.4381
2 -1.54528 14.5528 55.0732
3 -1.02853 9.62615 56.2812
1 0.698996 15.5933 52.418
2 3.01926 12.2131 52.9822
3 0.175916 8.58022 53.0592
1 5.00989 12.1469 50.829
2 5.64085 8.20882 51.0297
6 2.03367 6.94535 50.5061
1 7.85331 6.90914 49.0313
2 6.37956 3.58564 48.6942
6 2.03316 4.28527 47.7817
1 7.67826 0.50655 46.3721
2 4.44573 -1.65607 46.246
4 1.71958 1.37387 45.0788
1 4.60487 -4.46635 44.1526
2 1.2667 -4.40089 43.1168
6 0.421707 -0.654451 42.0884
1 -0.0724291 -7.92052 40.0052
2 -2.46634 -6.0087 38.2615
5 -1.55632 -0.760641 38.4227
1 -4.34212 -7.38661 35.6689
2 -5.40989 -3.6338 34.7667
6 -1.73788 -1.25408 34.9688
1 -7.92789 -2.75808 31.0661
2 -7.21269 0.723379 31.2155
3 -2.31508 1.21815 31.8061
1 -8.4979 2.42764 28.5846
2 -5.89535 4.78878 28.04
6 -2.15559 2.13889 28.3556
1 -5.69902 6.99044 25.7707
2 -2.19979 7.55809 25.8292
6 -0.583747 4.11197 25.564
1 -0.294571 10.1837 23.1149
2 2.87788 8.6194 22.8088
4 1.77466 4.64329 22.0147
1 5.83082 10.1494 20.9516
2 7.72942 6.97243 19.9321
4 4.12409 4.26083 18.8259
1 10.4276 6.86958 17.3603
2 10.1542 3.02602 16.6666
4 5.65644 2.76177 15.534
1 12.8991 1.96495 13.6666
2 10.8586 -0.836786 12.6334
5 6.00166 0.846422 11.767
1 11.7137 -3.45735 10.3367
2 7.81648 -4.27058 8.96299
4 5.97156 -0.181244 8.53149
1 7.55469 -6.90078 5.4925
2 4.07272 -5.41886 4.47707
3 4.16053 -0.662903 4.63063
1 2.76987 -6.67454 1.30387
2 0.434745 -3.64817 0.197129
12 2.88925 -0.447183 1.26836
190
Atoms. Timestep: 8000
2 -1.76357 6.18261 -2.13521
7 0.743642 2.82103 0.0388238
1 -4.25305 7.13521 -0.26838
2 -4.78262 3.78455 2.232
4 -0.73175 3.38954 3.59454
1 -7.47483 3.8229 5.60879
2 -5.68416 0.774846 7.13828
3 -1.20083 1.87464 7.55363
1 -6.97962 -0.417808 9.64657
2 -3.73418 -2.11205 10.8667
6 -0.895279 1.31589 11.4186
1 -3.85428 -5.11399 13.8377
2 -0.0793718 -4.90858 15.3386
3 1.2562 0.145633 14.6593
1 1.09113 -6.48765 18.3236
2 3.70277 -4.19774 18.6
3 1.91042 0.45342 18.2695
1 6.48054 -4.70462 20.9807
2 7.73012 -0.909514 20.9639
3 3.7935 1.6819 20.9866
1 10.1874 0.00646228 23.9972
2 8.91325 3.66984 24.5581
5 3.91823 4.01757 24.1999
1 10.0513 6.18538 27.2411
2 6.99636 7.85224 27.2191
5 2.87546 5.29001 27.5564
1 6.62144 10.3331 28.8829
2 2.99826 10.2286 29.2551
4 2.35086 6.14601 30.7375
1 1.96373 13.2881 32.592
2 -0.899952 11.5302 33.8864
5 -0.169561 6.36399 34.0762
1 -3.208 13.0831 35.7014
2 -5.1344 9.5069 35.9678
6 -1.66781 6.97377 37.1265
1 -8.60527 9.22328 38.764
2 -7.92832 5.23632 39.9962
5 -3.29074 4.48111 40.3135
1 -10.1247 3.59405 42.5457
2 -7.28547 1.0337 43.8705
3 -2.93874 3.82084 43.9401
1 -7.90413 -1.05946 47.339
2 -4.6839 -1.69742 48.237
5 -2.0583 2.5387 47.979
1 -3.61236 -3.93775 51.3413
2 -0.197158 -1.98577 52.0065
5 -0.407719 3.18289 51.4333
1 1.89813 -2.85837 54.9804
2 4.30286 0.557499 54.9627
4 0.983254 3.56589 54.6283
1 6.35462 0.946048 57.8236
2 6.74814 4.64316 57.7117
4 2.53673 5.42285 58.0834
1 8.83306 6.29498 60.4638
2 6.4138 9.79632 60.3371
4 2.67667 7.75331 61.1659
1 7.42032 12.896 62.7092
2 3.73596 14.2243 62.7104
6 1.51342 10.3656 63.6159
1 2.40911 17.4486 64.8423
2 -1.30986 16.4122 65.2319
4 -0.394741 12.4956 66.4564
1 -3.82727 18.5968 67.6152
2 -5.0201 15.6118 69.6741
3 -2.20723 11.6586 70.0265
1 -7.11801 16.0089 71.9404
2 -7.60265 12.5409 72.1386
4 -3.13814 11.3376 73.6539
1 -10.5618 11.2754 75.2368
2 -9.05191 7.63647 75.8003
5 -3.74704 7.83379 76.2597
1 -10.4538 5.38986 77.4301
2 -7.52772 3.73272 78.2021
6 -4.83586 6.74028 79.2498
1 -7.5961 0.923589 81.3653
2 -3.92305 1.42251 82.8199
4 -4.09365 5.96098 83.249
1 -3.23772 -0.655826 85.3963
2 -0.660317 1.65444 86.8408
6 -2.4757 5.95036 86.696
1 1.25986 1.15931 89.8589
2 2.64984 4.62413 90.4733
6 -1.14833 6.98701 90.0829
1 4.35866 5.26625 93.8809
2 3.07107 8.71865 94.4629
6 -1.17465 8.26514 93.5742
1 3.82958 10.6471 98.1369
2 1.05825 13.4276 97.5463
3 -2.60936 10.8287 96.3674
1 0.725597 15.3575 100.006
2 -2.64374 15.5718 100.175
6 -3.8026 11.189 99.6011
1 -4.58724 17.9725 103.54
2 -7.35939 16.1975 103.343
13 -6.74809 11.5591 102.569
2 -11.5685 3.90473 101.023
10 -7.9667 6.32581 101.318
1 -13.7534 4.13561 96.9115
2 -13.2435 7.73579 96.6144
5 -8.33405 8.79684 97.697
1 -14.1376 9.39436 94.0156
2 -11.6947 12.2178 94.1474
4 -8.05952 9.45092 94.2534
1 -11.6309 15.0712 90.667
2 -8.03391 15.933 91.0233
5 -5.25702 11.7103 91.9685
1 -6.28475 18.2608 88.6901
2 -3.2345 17.0944 88.7153
5 -3.30126 11.9781 88.833
1 -0.586361 18.6478 86.1163
2 1.69356 15.4363 86.0091
5 -0.808965 11.2892 86.1371
1 4.61278 15.2649 83.9124
2 4.75927 11.5947 83.6946
3 0.192538 9.81344 82.9287
1 7.238 10.1308 81.1441
2 5.4352 7.04306 80.4499
5 0.644664 7.62588 79.8938
1 7.05337 4.53891 79.1576
2 3.56139 3.21018 77.8255
6 1.60634 6.46832 76.7583
1 3.31608 0.254536 74.6496
2 -0.217752 0.999056 73.2571
3 -0.368066 5.57276 73.1057
1 -1.15164 -0.209149 70.7262
2 -3.71768 1.92908 70.016
4 -1.35378 5.80858 69.7183
1 -6.70731 1.15195 66.8954
2 -7.43217 4.52618 66.3287
3 -3.28287 7.54561 66.5809
1 -9.74203 5.51533 62.8364
2 -8.51016 8.43136 62.3724
5 -3.57974 8.37554 62.8662
1 -9.85194 10.5053 59.8241
2 -6.71795 12.3191 58.8259
3 -2.58447 9.27457 59.6683
1 -6.46286 14.471 55.5518
2 -2.76308 14.1847 55.3211
3 -1.26944 9.25936 56.1011
1 -0.699612 15.8571 52.7377
2 2.12536 13.5302 52.7172
3 0.778931 9.0776 53.1595
1 4.04323 13.9794 50.8136
2 4.85725 10.2231 50.3084
6 1.43996 8.28521 49.9158
1 7.3486 9.18605 48.2892
2 6.43482 5.28414 48.2681
6 2.4626 5.6653 47.2301
1 8.47548 2.71094 45.6025
2 5.41093 0.363461 44.5363
4 2.71179 3.5198 43.2033
1 6.42097 -2.50717 41.8006
2 2.60516 -2.95087 40.8266
6 1.47817 1.43521 40.3679
1 1.71577 -6.15923 37.6757
2 -1.35514 -4.02706 36.4758
5 -0.940303 1.427 36.8538
1 -3.29357 -5.5809 34.6097
2 -4.88561 -2.32234 33.6642
6 -1.32919 0.816561 33.4243
1 -7.8856 -1.95043 30.2991
2 -6.78527 1.93998 29.5231
3 -2.29798 2.31192 29.6494
1 -8.11232 3.34739 26.8805
2 -6.0035 5.93492 26.9763
6 -2.42397 4.19469 26.5671
1 -6.58372 8.84115 24.997
2 -3.26502 9.7868 24.2854
6 -1.3749 6.24044 23.3838
1 -2.25022 12.7617 21.8065
2 1.63724 11.485 20.7389
4 0.72899 6.8356 20.1141
1 3.77432 12.8373 18.1961
2 5.97072 9.55788 17.6858
4 2.48014 6.33322 16.724
1 8.85762 9.65241 15.3947
2 9.08433 5.66117 15.0164
4 5.12972 4.73186 14.3568
1 11.8294 4.0283 11.5225
2 9.67283 1.16214 10.8041
5 4.51366 2.29717 10.4852
1 10.4206 -1.89197 9.95305
2 6.86284 -3.63386 9.24601
4 4.29383 -0.0394095 7.81685
1 6.90461 -7.02893 6.40883
2 3.1324 -6.51273 5.24198
3 2.04838 -1.55476 4.48676
1 1.73838 -8.70188 2.57137
2 -0.916026 -6.20253 1.47946
12 1.88691 -2.68364 1.02936
190
Atoms. Timestep: 10000
2 -5.876 7.52153 1.47512
7 -3.45069 3.78286 1.25819
1 -8.05156 7.48484 4.37109
2 -8.0099 3.5808 4.40136
4 -3.7795 2.89524 4.62715
1 -9.81043 1.40324 7.39148
2 -7.47172 -1.27466 7.3852
3 -2.47498 0.0305728 7.26863
1 -8.06297 -3.64598 9.77585
2 -4.34511 -5.18522 10.0076
6 -1.64088 -1.77006 10.8042
1 -3.37316 -9.03254 12.6037
2 0.0514078 -8.19461 13.3446
3 0.442712 -3.32583 13.8639
1 2.21226 -10.4174 15.883
2 4.70906 -7.62525 16.6885
3 2.47532 -3.08117 16.7239
1 7.12699 -7.8468 19.0328
2 7.45913 -4.42403 19.3976
3 2.78653 -2.21814 20.1949
1 9.89844 -3.39361 22.0177
2 8.3411 -0.27081 22.6229
5 3.27472 -0.272022 23.3381
1 9.8561 2.26987 25.08
2 7.11764 3.89922 26.2729
5 3.07263 1.22881 26.7843
1 7.1722 6.39988 28.4996
2 3.84068 6.23214 29.0532
4 3.33759 2.12751 30.1573
1 2.33953 9.01763 32.341
2 -0.53892 7.09798 32.8654
5 0.193839 2.34296 33.071
1 -3.50319 8.25091 33.57
2 -5.08009 4.94366 34.2707
6 -1.43539 3.27197 35.8979
1 -8.98334 4.87587 36.5811
2 -7.7033 1.66044 38.75
5 -2.89879 1.78824 39.5838
1 -9.70096 -0.206841 41.0047
2 -7.29262 -1.66139 42.7646
3 -3.28241 1.15829 43.2067
1 -8.45869 -2.83919 45.9219
2 -4.89668 -3.07588 47.455
5 -2.36032 1.21026 46.9611
1 -4.72019 -3.69537 50.5136
2 -1.5578 -2.31019 51.1968
5 -1.66082 2.53774 50.3774
1 0.0697964 -2.8626 53.7596
2 2.18764 -0.0967485 53.388
4 -0.978785 3.24724 53.6162
1 5.19772 0.192868 55.778
2 5.31214 4.25201 55.938
4 1.08723 5.20203 56.5235
1 7.52069 6.40806 58.4691
2 5.44276 9.48308 58.0639
4 1.93814 7.65598 59.4642
1 6.82193 12.1892 59.6828
2 3.91603 13.4425 61.304
6 1.3085 10.1359 62.4208
1 3.5301 16.538 64.3316
2 -0.421575 15.69 65.1983
4 -0.179896 11.3287 66.0315
1 -3.39077 18.0905 67.8474
2 -5.36708 15.3325 68.6817
3 -2.85307 11.0278 69.5772
1 -7.67728 15.8894 70.6617
2 -8.81945 12.2189 71.2434
4 -4.6765 10.3291 72.686
1 -12.1424 12.1912 74.2384
2 -10.9879 8.46233 75.3218
5 -6.22432 8.39626 76.317
1 -13.3094 6.39323 77.1482
2 -10.7707 4.29432 78.2466
6 -7.70679 7.17803 79.196
1 -10.9526 1.59008 81.4758
2 -6.95219 1.61507 82.0924
4 -6.67163 5.5678 82.8689
1 -5.49479 -1.06646 84.9398
2 -3.03625 1.31604 86.0597
6 -5.5325 5.14248 86.7135
1 -0.338865 0.564411 88.4613
2 0.518271 4.35469 89.6207
6 -3.67541 6.49852 89.7215
1 2.67366 5.22325 92.2837
2 1.04453 8.81692 93.4152
6 -3.41932 8.57519 92.8953
1 2.32922 11.1681 96.6733
2 -0.47884 13.2863 96.8653
3 -4.28547 10.6262 96.8752
1 -0.450611 15.2735 99.2211
2 -3.60977 16.1261 98.7349
6 -5.62312 12.3292 99.4689
1 -4.86287 20.0667 101.49
2 -8.67463 19.1932 101.393
13 -9.63848 15.2626 103.901
2 -12.6363 3.38141 102.179
10 -11.9544 6.79935 104.381
1 -15.2576 3.91453 98.1371
2 -14.9915 8.05665 98.2617
5 -10.5475 9.31729 98.8982
1 -16.5421 10.0491 96.2983
2 -13.6632 12.9487 96.1883
4 -9.93135 10.206 95.6062
1 -14.1105 15.7878 93.1194
2 -10.5068 16.4125 92.8183
5 -7.48297 12.1023 92.7014
1 -9.24342 18.474 90.4484
2 -5.72539 16.7794 90.0094
5 -5.90316 11.7405 89.2119
1 -3.55712 18.2412 87.465
2 -1.57434 15.0659 86.9459
5 -4.59775 10.5586 86.0513
1 1.36561 15.1409 84.9315
2 1.80947 11.4274 84.4135
3 -2.67929 9.73158 83.2589
1 4.90442 9.97979 81.9472
2 2.94377 6.96012 80.7025
5 -2.24362 7.66928 79.7316
1 4.42728 4.68789 79.2337
2 0.906979 3.507 77.6365
6 -1.04722 6.9396 76.5065
1 0.663593 -0.30793 74.7432
2 -2.90884 0.324112 73.7843
3 -2.91165 4.85058 72.9451
1 -3.97931 -1.34603 70.9544
2 -6.23671 1.55445 70.406
4 -3.04102 4.76473 69.1068
1 -8.85826 1.72875 66.9907
2 -8.87365 5.10532 66.0483
3 -3.85767 6.86809 65.6882
1 -10.6138 5.47293 62.8172
2 -8.58004 8.71801 61.56
5 -3.76699 8.19375 61.8136
1 -9.93602 11.1615 58.7532
2 -6.89461 12.8303 57.9034
3 -3.61355 9.57189 58.6223
1 -6.91873 14.4467 54.7765
2 -3.65127 14.0809 54.2089
3 -2.31027 9.6962 55.2884
1 -2.00446 15.6523 51.358
2 0.806206 13.2683 51.3541
3 -0.882221 8.82587 51.7553
1 2.86777 13.5511 48.9292
2 3.86071 10.2355 49.0054
6 0.174709 7.58791 48.8774
1 6.2968 9.35105 46.4577
2 5.95041 5.53599 46.5933
6 1.49915 5.17929 46.0906
1 8.18656 2.9741 44.167
2 6.24346 0.262545 44.65
4 2.32266 2.296 43.3394
1 7.44927 -2.83358 42.9071
2 3.91488 -3.82342 41.9124
6 1.96024 -0.405706 40.365
1 3.78016 -7.61745 38.9324
2 0.503733 -6.72052 37.6629
5 0.39859 -2.0482 36.6542
1 -1.69216 -8.60433 35.6118
2 -3.43363 -5.89344 34.6707
6 -0.260002 -3.15633 33.5589
1 -6.13568 -6.55823 31.4059
2 -6.22167 -2.73914 30.5955
3 -1.09075 -1.52693 29.8899
1 -8.10599 -1.5999 28.5584
2 -5.91387 1.30598 27.9366
6 -2.18553 -0.617129 26.6909