190
Atoms. Timestep: 0
2 8.58965 -3.78079 36.7962
7 4.34621 -3.76733 38.8102
1 7.9484 -4.71664 33.1902
2 5.28903 -7.73628 34.2362
4 2.67934 -5.08126 36.2232
1 4.24383 -8.17737 30.6302
2 0.374616 -9.28173 31.6762
3 -1.37961 -5.41784 33.6902
1 -0.743226 -9.08826 28.0702
2 -4.59584 -7.92729 29.1162
6 -3.62993 -4.39552 30.8852
1 -5.43199 -7.16057 25.5102
2 -8.0468 -4.10226 26.5562
3 -5.26385 -0.898794 28.5702
1 -8.33622 -3.00534 22.9502
2 -8.88439 0.980883 23.9962
3 -4.81187 2.17318 26.0102
1 -8.53534 2.06031 20.3902
2 -6.84311 5.71091 21.4362
3 -2.77191 4.51409 23.4502
1 -5.96623 6.43069 17.8302
2 -2.57 8.58849 18.8762
5 0.540204 5.49677 20.9532
1 -1.44324 8.72047 15.2702
2 2.58045 8.7015 16.3162
5 3.52745 4.41953 18.3932
1 3.59993 8.20384 12.7102
2 6.97567 6.01412 13.7562
4 4.73036 3.04457 15.7432
1 7.56471 5.04457 10.1502
2 9.22246 1.37819 11.1962
5 5.72335 -1.26536 13.2732
1 9.19435 0.244075 7.59018
2 8.60863 -3.7368 8.63618
6 4.97366 -3.29719 10.4052
1 7.97229 -4.67599 5.03018
2 5.32877 -7.70952 6.07618
5 1.46855 -5.62846 8.15318
1 4.2859 -8.15607 2.47018
2 0.422515 -9.28068 3.51618
3 -1.35192 -5.42602 5.53018
1 -0.696325 -9.09306 -0.089817
2 -4.55496 -7.95228 0.956183
5 -4.26973 -3.57612 3.03318
1 -5.39512 -7.18995 -2.64982
2 -8.0259 -4.14538 -1.60382
5 -5.4217 -0.616888 0.473183
1 -8.32107 -3.04999 -5.20982
2 -8.8901 0.933313 -4.16382
4 -5.17634 1.19344 -2.17682
1 -8.5467 2.01456 -7.76982
2 -6.87361 5.67396 -6.72382
4 -3.60792 3.88654 -4.73682
1 -6.00051 6.39832 -10.3298
2 -2.61563 8.57388 -9.28382
4 -0.833147 5.30548 -7.29682
1 -1.48958 8.71175 -12.8898
2 2.53416 8.71386 -11.8438
6 2.63027 5.05366 -10.0748
1 3.55623 8.22154 -15.4498
2 6.94339 6.04953 -14.4038
4 4.71366 3.06826 -12.4168
1 7.5375 5.08307 -18.0098
2 9.21442 1.42542 -16.9638
3 5.66032 -0.893074 -14.9498
1 9.19225 0.291175 -20.5698
2 8.62739 -3.69272 -19.5238
4 4.98852 -2.90641 -17.5368
1 7.99597 -4.63522 -23.1298
2 5.36837 -7.68255 -22.0838
5 1.49731 -5.62173 -20.0068
1 4.32785 -8.13456 -25.6898
2 0.470408 -9.27938 -24.6438
6 -0.661301 -5.79721 -22.8748
1 -0.649399 -9.09762 -28.2498
2 -4.51396 -7.97706 -27.2038
4 -3.22277 -4.48528 -25.2168
1 -5.35809 -7.21914 -30.8098
2 -8.00478 -4.18838 -29.7638
6 -5.30977 -1.70983 -27.9948
1 -8.30568 -3.09455 -33.3698
2 -8.89556 0.885715 -32.3238
6 -5.28866 1.51549 -30.5548
1 -8.55783 1.96874 -35.9298
2 -6.90392 5.63685 -34.8838
6 -3.52845 4.21823 -33.1148
1 -6.03463 6.36578 -38.4898
2 -2.66118 8.55903 -37.4438
3 0.151633 5.38175 -35.4298
1 -1.53587 8.7028 -41.0498
2 2.4878 8.72597 -40.0038
6 2.60308 5.06632 -38.2348
1 3.51244 8.23901 -43.6098
2 6.91092 6.08476 -42.5638
13 5.43771 1.95417 -40.4868
2 6.91092 -6.35106 -36.7858
10 5.03084 -3.20915 -38.5548
1 7.51009 -5.38773 -33.1798
2 9.20613 -1.73891 -34.2258
5 5.7349 0.941142 -36.3028
1 9.18991 -0.60456 -30.6198
2 8.64591 3.38224 -31.6658
4 5.00297 2.61499 -33.6528
1 8.01944 4.32803 -28.0598
2 5.40783 7.38908 -29.1058
5 1.52602 5.34856 -31.1828
1 4.36969 7.84653 -25.4998
2 0.518294 9.01153 -26.5458
5 -1.64592 5.19731 -28.6228
1 -0.60245 8.83564 -22.9398
2 -4.47282 7.73532 -23.9858
5 -4.23343 3.35642 -26.0628
1 -5.32091 6.98184 -20.3798
2 -7.98344 3.96498 -21.4258
3 -5.25115 0.718193 -23.4398
1 -8.29005 2.87274 -17.8198
2 -8.90077 -1.10438 -18.8658
5 -4.81965 -2.70957 -20.9428
1 -8.56871 -2.18916 -15.2598
2 -6.93404 -5.86589 -16.3058
6 -3.55118 -4.46495 -18.0748
1 -6.06857 -6.59935 -12.6998
2 -2.70666 -8.81023 -13.7458
3 0.122758 -5.64773 -15.7598
1 -1.58211 -8.95989 -10.1398
2 2.44139 -9.00413 -11.1858
4 2.21455 -5.28819 -13.1728
1 3.46856 -8.52255 -7.57982
2 6.87827 -6.38612 -8.62582
3 5.18064 -2.49703 -10.6398
1 7.48247 -5.42594 -5.01982
2 9.1976 -1.78605 -6.06582
5 5.74045 0.912136 -8.14282
1 9.18732 -0.651636 -2.45982
2 8.6642 3.33795 -3.50582
3 4.42141 3.41336 -5.51982
1 8.04269 4.28702 0.100183
2 5.44714 7.36169 -0.945817
3 1.83605 5.13302 -2.95982
1 4.41141 7.82458 2.66018
2 0.56617 9.00973 1.61418
3 -1.26859 5.18342 -0.399817
1 -0.555478 8.83971 5.22018
2 -4.43156 7.75967 4.17418
6 -3.53983 4.20846 2.40518
1 -5.28358 7.01064 7.78018
2 -7.96187 4.00776 6.73418
6 -5.29296 1.50112 4.96518
1 -8.2742 2.91714 10.3402
2 -8.90573 -1.05673 9.29418
4 -5.19652 -1.37516 7.30718
1 -8.57936 -2.14323 12.9002
2 -6.96396 -5.82846 11.8542
6 -3.57381 -4.44526 10.0852
1 -6.10234 -6.56645 15.4602
2 -2.75205 -8.79491 14.4142
5 0.422224 -5.769 12.3372
1 -1.6283 -8.95045 18.0202
2 2.39491 -9.01576 16.9742
6 2.5485 -5.35752 15.2052
1 3.42458 -8.53956 20.5802
2 6.84544 -6.42101 19.5342
3 5.16819 -2.52308 17.5202
1 7.45466 -5.46401 23.1402
2 9.18882 -1.83315 22.0942
6 5.92656 -0.170643 20.3252
1 9.18448 -0.698697 25.7002
2 8.68226 3.29358 24.6542
6 5.03887 2.93019 22.8852
1 8.06573 4.24588 28.2602
2 5.48632 7.33411 27.2142
4 2.80801 4.74831 25.2272
1 4.45302 7.80241 30.8202
2 0.614037 9.00768 29.7742
4 -0.24283 5.38477 27.7872
1 -0.508486 8.84353 33.3802
2 -4.39017 7.7838 32.3342
4 -3.15399 4.27218 30.3472
1 -5.24611 7.03924 35.9402
2 -7.94008 4.05043 34.8942
5 -5.41033 0.468173 32.8172
1 -8.25811 2.96146 38.5002
2 -8.91044 -1.00905 37.4542
4 -5.20294 -1.3469 35.4672
1 -8.58976 -2.09725 41.0602
2 -6.99368 -5.79089 40.0142
3 -2.89255 -4.70106 38.0002
1 -6.13594 -6.53338 43.6202
2 -2.79736 -8.77934 42.5742
12 -0.946819 -5.54899 40.5872
190
Atoms. Timestep: 2000
2 6.00923 -5.03269 38.4872
7 1.59323 -5.4074 39.583
1 6.24912 -6.44617 34.5364
2 3.36563 -9.16284 35.0457
4 0.297664 -6.55071 36.4525
1 2.94045 -9.35333 31.4175
2 -0.929213 -11.0404 31.4343
3 -3.38573 -7.64475 33.4632
1 -1.31657 -10.7259 27.5093
2 -5.41906 -9.07131 27.6096
6 -4.72795 -5.91285 30.4012
1 -4.81396 -7.5892 24.3466
2 -7.98898 -4.83137 25.1629
3 -5.88326 -2.08542 28.4874
1 -7.35926 -3.1931 21.8836
2 -8.58934 0.461078 23.2184
3 -5.14863 1.2647 26.2832
1 -7.87006 2.23166 20.2902
2 -7.05065 5.54662 22.0971
3 -3.12891 4.23103 24.0775
1 -5.59657 6.97733 18.6881
2 -2.55391 9.01261 20.7647
5 0.671639 5.89126 22.761
1 -1.09597 9.9893 17.2089
2 2.69028 10.2844 18.9358
5 3.64516 6.11198 19.8921
1 4.26973 11.1747 15.6036
2 7.62459 8.25771 16.7249
4 5.09966 5.10355 17.2187
1 8.65817 7.94744 12.6963
2 10.2391 3.8157 12.7707
5 6.31906 1.15878 14.1235
1 10.44 3.25117 8.67691
2 10.1048 -0.736102 9.10159
6 6.4781 -0.820292 11.1014
1 9.41327 -1.15939 5.56875
2 7.09401 -4.28902 6.38013
5 3.15765 -2.57817 8.07728
1 6.42671 -4.93643 2.66841
2 2.70302 -6.31635 3.43367
3 0.328431 -2.37666 5.44825
1 1.41128 -6.64368 -0.137534
2 -2.42592 -5.91762 1.69576
5 -2.80791 -1.19324 2.74805
1 -3.78603 -6.07696 -1.7253
2 -6.24218 -3.05402 -1.78208
5 -3.92741 0.865643 -0.552258
1 -6.02391 -3.0802 -5.59009
2 -6.7829 1.56744 -5.20869
4 -3.25797 2.36379 -3.20322
1 -6.59141 1.92727 -9.00038
2 -4.80834 5.98719 -8.39109
4 -1.47438 3.92657 -6.52282
1 -3.9714 6.76518 -12.3375
2 -0.418664 9.27295 -11.4145
4 0.859244 5.94616 -9.04003
1 0.631107 9.15444 -15.1108
2 4.95866 9.49605 -13.6938
6 4.94275 5.92562 -11.2382
1 6.30121 8.91395 -16.8949
2 9.80634 6.76747 -15.4988
4 7.53996 3.85398 -12.8996
1 10.0354 5.70686 -19.0595
2 11.4968 1.88298 -17.3162
3 7.99581 -0.081423 -15.3887
1 11.4941 0.207443 -20.8605
2 10.1594 -3.57939 -19.8391
4 6.94556 -2.05884 -17.9896
1 9.04051 -4.13838 -23.3731
2 6.54101 -6.90832 -22.1064
5 2.92457 -4.31022 -20.0182
1 5.35393 -7.5822 -25.9667
2 1.74046 -8.43337 -24.8399
6 0.577166 -4.52409 -22.8033
1 0.499299 -7.64834 -28.2008
2 -3.38505 -6.85485 -26.7736
4 -1.88303 -2.82566 -25.1051
1 -5.20987 -6.16324 -30.0691
2 -7.72899 -2.60737 -28.8202
6 -4.84696 -0.532796 -27.6074
1 -8.73855 -2.08518 -32.5258
2 -8.53611 2.19501 -32.1482
6 -4.56895 1.99026 -30.9324
1 -8.62502 2.20723 -36.294
2 -6.80018 5.64428 -36.3357
6 -3.29934 4.41404 -34.0082
1 -5.94473 5.50889 -39.8129
2 -2.62034 7.37184 -38.9892
3 -0.124292 4.53351 -36.9793
1 -1.40233 7.7877 -42.4647
2 2.73773 7.9755 -40.7086
6 2.7569 4.34876 -39.4705
1 4.4398 8.00835 -44.4965
2 7.86809 5.65318 -42.9656
13 6.03226 1.03442 -41.2229
2 7.30031 -6.91403 -36.6758
10 5.41688 -4.15041 -39.2832
1 8.38964 -5.49288 -33.6085
2 9.74538 -1.97957 -35.0711
5 6.06531 0.201806 -37.5213
1 9.90134 -0.301854 -32.1773
2 9.06175 3.28452 -33.6281
4 5.08317 2.01303 -35.0443
1 9.02271 4.49436 -30.2674
2 6.45177 7.30661 -31.3108
5 2.00578 5.03498 -32.4517
1 5.81294 8.31498 -27.2946
2 2.2544 9.59595 -28.0456
5 -0.35183 5.1304 -29.139
1 1.48043 10.0841 -24.2846
2 -2.79039 9.07809 -24.4672
5 -3.32548 4.45707 -26.1986
1 -3.02582 8.63931 -20.7823
2 -6.02166 5.7393 -20.8547
3 -3.53912 2.30231 -23.0355
1 -5.81374 5.0317 -17.424
2 -7.231 0.7627 -18.3231
5 -3.27393 -1.30165 -20.8479
1 -7.01344 -0.0982171 -14.6885
2 -5.44525 -3.73723 -15.7311
6 -1.77979 -2.21902 -17.8584
1 -4.44113 -4.77229 -12.1788
2 -1.27997 -6.85664 -13.4627
3 1.74439 -3.71484 -15.4501
1 0.297711 -6.86313 -9.92384
2 4.05576 -7.83883 -11.0435
4 4.28022 -4.32708 -13.4843
1 5.36269 -7.24754 -8.12621
2 8.6504 -5.37054 -9.56214
3 7.47864 -1.66408 -11.3484
1 9.61876 -4.37663 -5.66963
2 11.3804 -0.827118 -6.82338
5 8.06356 1.82247 -9.10939
1 10.9919 0.499615 -3.29036
2 10.2577 4.21863 -4.6449
3 5.75852 4.04635 -6.80573
1 9.80928 5.34612 -0.768155
2 6.50985 8.09291 -1.75177
3 3.37299 5.41712 -3.70104
1 5.89111 8.92472 1.71245
2 1.81332 10.0147 0.739714
3 0.289621 6.72869 -1.29758
1 1.03074 9.94659 4.32718
2 -3.04418 9.59129 3.59634
6 -2.76139 6.01372 1.03336
1 -3.64219 8.64723 7.07999
2 -6.66955 6.32012 5.95198
6 -4.69742 3.85902 3.9845
1 -7.10396 5.08895 9.46584
2 -7.87126 1.31117 7.78591
4 -4.1181 1.40588 6.81278
1 -7.92582 0.0376445 10.8034
2 -5.78139 -3.49718 9.26764
6 -1.92871 -1.55102 9.38117
1 -5.67251 -5.28124 12.9085
2 -1.46832 -6.72047 12.3763
5 1.62643 -3.17642 11.9021
1 -1.50033 -7.72278 16.159
2 2.85852 -6.97714 15.979
6 2.9465 -3.26546 15.1395
1 2.85217 -6.93221 19.9012
2 6.6532 -4.69348 19.6988
3 5.33272 -0.918643 18.2013
1 6.83375 -4.20908 23.3127
2 8.8944 -0.845695 22.7594
6 5.65784 1.31676 21.3634
1 8.72787 -0.318143 26.8436
2 8.5731 3.62963 26.8055
6 5.29175 3.62462 24.683
1 7.3683 3.58534 30.3099
2 4.29092 6.95584 29.6615
4 1.95667 3.87549 27.0047
1 3.13117 6.37241 32.8647
2 -1.00093 7.30528 32.1455
4 -1.33655 3.98775 29.5401
1 -2.8246 6.54496 36.0035
2 -6.15812 6.07498 34.262
4 -4.39089 2.68751 31.8399
1 -7.57619 4.71998 37.7441
2 -10.0736 2.14979 35.6694
5 -7.17009 -1.2433 32.8742
1 -10.478 0.357484 38.8335
2 -11.5478 -3.07758 37.3149
4 -7.67368 -3.58732 35.0649
1 -11.059 -4.73058 41.0651
2 -9.30785 -8.3234 40.1438
3 -5.35871 -6.78211 37.8278
1 -7.89317 -8.52424 43.8691
2 -5.1719 -11.3242 42.7862
12 -3.67936 -7.85998 40.7514
190
Atoms. Timestep: 4000
2 1.30614 -4.65469 40.2083
7 -3.50352 -5.63031 40.6937
1 1.57978 -4.66253 36.5705
2 -1.19004 -7.79151 36.1061
4 -4.09199 -5.42267 37.309
1 -0.696899 -7.6554 32.8803
2 -4.54547 -8.53611 31.8407
3 -6.81989 -5.02802 33.2818
1 -3.53626 -7.98164 27.8291
2 -7.27015 -7.05678 26.622
6 -7.55116 -3.92633 29.868
1 -6.28898 -5.24943 23.7393
2 -9.19093 -2.4944 24.2525
3 -7.61017 0.36937 27.7132
1 -8.90626 -0.758002 20.9604
2 -9.99841 3.07287 22.6285
3 -6.52662 3.56499 25.7313
1 -8.6699 4.22869 19.6731
2 -8.04308 8.24023 21.7838
3 -5.21554 7.15523 24.826
1 -6.0009 9.27197 19.0192
2 -3.52803 11.1303 21.2345
5 -1.04004 7.92088 23.7193
1 -1.37954 11.9915 18.0562
2 1.83161 12.1909 20.3153
5 2.38874 7.81058 21.3758
1 4.29034 12.5082 16.8859
2 7.14737 10.3704 18.9707
4 4.93731 6.97839 19.3329
1 9.41405 10.0838 15.5103
2 10.667 6.23779 16.2599
5 6.72313 3.19819 16.5956
1 11.6523 5.77282 12.7865
2 10.9445 1.66399 12.3883
6 6.92705 1.4597 13.2101
1 11.238 1.66088 8.58633
2 8.18797 -1.72412 8.76982
5 4.15219 -0.131602 9.83913
1 8.01064 -2.7485 5.07923
2 3.87249 -4.3234 5.23879
3 1.61269 -0.654255 6.91005
1 3.209 -4.27553 1.27022
2 -0.903262 -3.555 2.10067
5 -1.39395 1.12436 4.23013
1 -1.72208 -3.13625 -1.51508
2 -5.12911 -0.474011 -0.763619
5 -3.23355 3.3926 0.899191
1 -5.77984 0.164235 -4.69211
2 -7.5977 3.65649 -4.4536
4 -3.90884 5.12545 -1.99296
1 -7.18169 4.30276 -8.43412
2 -6.9398 8.21521 -7.77333
4 -3.42647 7.53558 -5.0535
1 -6.21818 8.37456 -11.4483
2 -3.2924 11.2771 -10.8556
4 -1.3403 8.75208 -8.4723
1 -1.61339 10.8725 -14.4957
2 2.18935 11.3806 -12.6269
6 2.43766 8.00829 -10.7865
1 3.60759 10.4967 -16.0089
2 7.41192 8.88823 -14.3569
4 5.53171 5.94017 -11.7943
1 8.23368 7.37052 -17.8613
2 10.0972 4.47308 -16.0232
3 6.40206 1.68821 -14.1506
1 9.98951 2.69357 -20.0206
2 10.0052 -1.38504 -18.5508
4 6.57207 -0.416446 -16.8709
1 9.92705 -2.84012 -21.8417
2 7.2857 -6.11075 -20.2822
5 3.5187 -3.92444 -18.5158
1 6.33218 -6.84555 -23.7557
2 2.3877 -8.55997 -22.6208
6 1.36299 -5.05605 -21.4492
1 1.78428 -8.88073 -26.3388
2 -1.98942 -7.96743 -25.5308
4 -1.27463 -4.32525 -24.3248
1 -2.55736 -7.85456 -29.1939
2 -5.28784 -5.12028 -28.8853
6 -2.75472 -1.80555 -27.5905
1 -5.77224 -4.59104 -33.1369
2 -7.00764 -0.554102 -32.9624
6 -3.58845 0.810534 -30.6262
1 -5.85813 0.0121017 -36.1762
2 -4.8139 4.06672 -35.2673
6 -1.3257 3.25184 -33.1968
1 -3.74594 4.37406 -38.7077
2 -0.823668 7.52564 -38.1479
3 1.98655 5.4077 -35.3451
1 0.340743 6.77089 -41.7676
2 3.98569 7.83532 -40.8055
6 4.72945 4.76679 -37.7548
1 5.8323 6.69443 -43.8806
2 8.84414 5.92394 -41.9141
13 8.20808 2.0855 -39.4724
2 10.9897 -5.72555 -34.8786
10 8.60187 -2.99466 -37.086
1 12.1315 -3.63986 -31.7681
2 12.7371 0.332713 -33.7038
5 8.67501 1.77028 -35.6837
1 12.4829 2.17635 -30.0505
2 10.8335 5.34007 -31.5094
4 7.20594 3.35885 -33.3723
1 9.83475 7.05239 -28.0102
2 6.41612 9.0069 -29.5431
5 3.22478 5.6219 -31.3963
1 5.23054 9.5783 -26.0216
2 1.77371 9.564 -26.7091
5 0.287523 5.66191 -28.5178
1 0.809903 9.45915 -23.0341
2 -2.83053 7.94452 -24.3768
5 -2.08771 3.4944 -26.1518
1 -4.33425 7.4825 -20.5436
2 -6.5613 4.12959 -21.3517
3 -3.65608 1.01494 -23.1121
1 -6.95646 3.41197 -17.8024
2 -7.65189 -0.349346 -18.4827
5 -3.20829 -2.17152 -20.2392
1 -7.2222 -0.890542 -14.5494
2 -5.47612 -4.20445 -15.1344
6 -2.1548 -3.02658 -16.6903
1 -4.76842 -5.00435 -11.8331
2 -0.922814 -6.65062 -12.2431
3 1.7216 -3.16877 -14.659
1 -0.341055 -6.46563 -8.54102
2 3.34737 -5.78051 -8.88624
4 2.39702 -2.16928 -11.4687
1 3.81832 -4.62914 -5.72674
2 7.57564 -2.84487 -6.71426
3 6.00372 0.615715 -9.54753
1 7.67242 -1.09427 -3.18433
2 9.44062 2.27633 -5.16017
5 5.56058 4.37361 -7.70787
1 9.46048 4.48902 -1.9421
2 8.89644 7.83927 -3.7961
3 4.67172 7.67115 -5.90797
1 8.27406 9.3458 -0.71549
2 5.50604 12.0489 -2.04344
3 1.83502 9.24563 -3.18413
1 4.81326 13.5782 1.54798
2 0.825146 14.2659 1.16229
3 -0.843894 9.96911 -0.28776
1 0.24245 14.006 4.59611
2 -3.60841 12.1321 4.39188
6 -2.22081 8.67874 2.91183
1 -4.08436 11.7682 8.32299
2 -6.36574 8.37923 7.57335
6 -3.66209 6.14461 5.74961
1 -6.80681 7.06414 10.8276
2 -6.7907 3.1569 9.20961
4 -3.0141 3.47127 8.23016
1 -6.9222 1.50889 12.2392
2 -4.68722 -1.55015 11.1524
6 -1.2129 0.396593 10.962
1 -5.02883 -2.8555 14.7192
2 -1.11977 -4.985 14.4637
5 2.45714 -1.53599 13.4516
1 -0.617558 -5.55677 17.9852
2 3.61885 -5.476 17.9177
6 3.95151 -1.52049 16.8008
1 3.38318 -5.55926 22.0603
2 6.5986 -3.37554 22.2891
3 5.18509 1.2518 20.247
1 6.19398 -2.87316 25.9855
2 7.80459 1.06076 25.8065
6 4.70988 3.00391 23.7924
1 6.42129 1.73816 29.6181
2 5.84687 5.43719 28.7241
6 2.81907 5.1331 26.7702
1 4.06113 6.274 32.3539
2 1.88801 9.25313 31.1365
4 -0.179881 6.83556 28.1683
1 0.253805 8.62565 34.69
2 -3.79177 9.37923 32.7723
4 -3.40078 5.63801 30.2071
1 -5.85709 8.70873 36.2148
2 -9.17938 8.23305 33.614
4 -7.11042 4.7096 31.5483
1 -11.145 6.94173 36.5346
2 -13.1408 4.10613 33.8691
5 -10.0324 0.356184 32.2874
1 -15.3688 2.39888 36.8869
2 -15.4904 -1.40403 34.9637
4 -11.6207 -1.4512 34.4269
1 -16.5213 -3.12872 38.2406
2 -14.4178 -6.18097 37.1061
3 -9.79392 -5.01161 37.0307
1 -14.5489 -8.29942 40.8398
2 -11.3914 -10.3394 39.7952
12 -9.00757 -7.20742 39.5109
190
Atoms. Timestep: 6000
2 1.94367 -1.44471 40.1384
7 -2.87642 -2.30146 40.6604
1 2.74842 -1.95685 36.5829
2 0.224627 -5.54735 36.1281
4 -3.2916 -3.48657 37.4901
1 0.50828 -5.95136 32.0122
2 -3.46068 -7.14735 31.754
3 -5.56402 -3.43978 33.1614
1 -3.65909 -6.85851 28.0573
2 -7.65639 -5.14948 27.6111
6 -6.81043 -1.79451 30.0655
1 -6.76062 -3.97251 24.4198
2 -9.38061 -0.768045 24.6269
3 -7.3181 2.0159 27.7618
1 -7.9726 0.659627 21.2031
2 -8.92483 4.1432 22.0108
3 -5.88866 5.5664 25.7989
1 -7.3782 5.13504 19.2197
2 -7.24773 9.23915 21.378
3 -3.903 8.72467 24.209
1 -5.60421 10.6333 18.0849
2 -3.19288 13.5334 20.1844
5 -0.267692 11.0318 23.0933
1 -1.65785 14.3786 17.3207
2 2.20805 14.6185 19.5864
5 3.07313 10.3456 20.9026
1 3.86919 14.9563 16.1913
2 7.37053 12.3454 17.2466
4 4.95798 9.32972 18.7124
1 8.30084 11.8617 13.3417
2 10.1115 8.16456 14.4384
5 6.47286 5.44476 15.9767
1 10.2526 7.35056 10.2502
2 10.1839 3.62262 10.6367
6 6.46372 3.56053 12.6765
1 9.67729 3.41663 7.10468
2 7.03931 0.18027 7.63279
5 3.03931 1.56475 9.63886
1 6.42029 -0.0172611 4.33645
2 2.82322 -2.62911 5.40615
3 -0.0547233 0.753633 7.54842
1 1.17095 -3.31345 1.69215
2 -3.02804 -3.13048 3.53994
5 -3.69404 1.53556 4.99344
1 -4.36384 -3.31787 0.144603
2 -7.09272 -0.578777 0.652635
5 -5.10655 3.48702 1.77868
1 -7.27704 -0.487479 -2.90698
2 -8.7602 3.42449 -2.95985
4 -4.91121 4.91147 -1.18341
1 -8.25109 3.37438 -6.93592
2 -7.28573 6.8698 -6.73003
4 -3.6238 6.15011 -4.6954
1 -6.76474 7.14354 -10.6603
2 -4.28597 9.96429 -10.5836
4 -1.82323 7.93682 -7.9407
1 -2.94058 9.4264 -14.4494
2 1.05525 10.4269 -13.6463
6 1.6149 7.77144 -10.7336
1 2.46118 9.14078 -16.8801
2 5.51953 8.13413 -15.0507
4 3.75544 5.45705 -12.8601
1 6.85434 6.82762 -18.1741
2 8.96043 3.41425 -16.5468
3 5.7556 1.23044 -14.4747
1 9.81799 1.38322 -20.0267
2 9.23551 -2.45046 -18.4965
4 5.74589 -1.49821 -16.2776
1 9.10042 -4.30237 -21.3544
2 6.46872 -7.30897 -19.5564
5 2.61743 -5.15273 -18.2694
1 5.9022 -8.5829 -23.038
2 2.10316 -10.1189 -22.285
6 0.513125 -6.40681 -20.8251
1 1.31561 -10.154 -26.2215
2 -2.80795 -9.05572 -25.7507
4 -1.59826 -5.37083 -23.6504
1 -2.4947 -8.36472 -29.8019
2 -5.64454 -5.91642 -29.4545
6 -3.54735 -3.14533 -26.8957
1 -5.26723 -5.15093 -33.1867
2 -5.54993 -1.27931 -32.5038
6 -2.52704 -0.71987 -30.3712
1 -4.4392 -0.753509 -36.4828
2 -3.65523 2.88923 -35.2601
6 -0.128182 1.60551 -33.155
1 -2.28827 4.38997 -38.4885
2 0.902795 6.71939 -36.6945
3 3.51438 3.59584 -34.6737
1 2.67158 7.36741 -40.0302
2 6.60472 7.37476 -37.9758
6 6.38882 3.77255 -36.8978
1 8.47231 7.62171 -41.4861
2 11.419 5.71232 -40.1311
13 9.56997 0.901185 -38.7967
2 10.8555 -7.83495 -35.5731
10 9.47435 -4.5545 -37.6846
1 10.5551 -6.64085 -31.5235
2 12.4411 -3.28197 -32.4883
5 9.53227 -0.642422 -34.7292
1 11.761 -2.10584 -29.1585
2 11.5639 1.64667 -30.1719
4 8.5311 1.15203 -32.2821
1 9.98165 2.18333 -26.7165
2 7.75479 5.25972 -28.1774
5 4.36187 3.32897 -30.4741
1 6.3279 6.1214 -24.3051
2 2.69701 6.95551 -26.0769
5 0.896084 2.70791 -27.8528
1 0.716502 7.59723 -22.5568
2 -2.75936 6.51105 -24.0646
5 -2.12246 2.11257 -25.0951
1 -4.70766 6.51268 -20.5613
2 -7.19091 3.40621 -21.3532
3 -4.11043 -0.199288 -22.8266
1 -7.71423 2.54061 -17.2645
2 -8.22364 -1.7176 -17.7203
5 -4.06037 -3.53907 -19.9303
1 -7.57147 -2.43834 -13.7382
2 -5.82065 -5.76404 -14.3883
6 -2.752 -4.6061 -16.8934
1 -4.14472 -5.78521 -10.4141
2 -0.704057 -7.29932 -11.153
3 1.04292 -4.17628 -13.8071
1 0.532406 -6.49803 -7.49314
2 4.01698 -5.82904 -8.55021
4 3.17148 -3.21147 -11.5642
1 5.61585 -4.2658 -5.45255
2 8.15688 -1.53271 -7.08018
3 5.54657 0.627411 -9.98061
1 8.65578 0.492359 -3.85086
2 9.34897 3.55474 -5.88884
5 5.47057 4.68701 -8.23657
1 9.53392 5.77596 -2.75552
2 8.11358 8.70931 -4.68822
3 3.64012 7.09072 -6.00042
1 7.70312 11.0382 -1.22267
2 3.99025 12.6696 -2.61907
3 1.18476 8.92488 -3.2683
1 3.26886 13.9911 1.18843
2 -0.459098 14.3112 0.545702
3 -1.55223 9.64012 -0.312992
1 -1.26471 14.5426 4.47515
2 -5.02014 12.8099 3.7206
6 -3.85041 8.87194 2.41749
1 -5.48287 12.4382 7.4951
2 -7.64222 9.28811 6.91756
6 -5.00255 6.93122 5.9416
1 -8.37004 8.69508 10.6422
2 -8.42665 4.405 10.302
4 -4.6505 4.2754 8.63809
1 -8.00247 3.58691 13.53
2 -5.80981 0.333897 12.7998
6 -2.08787 2.03942 11.5459
1 -5.73149 -0.480659 16.1636
2 -1.89428 -2.55422 15.4043
5 1.7343 0.998421 13.9718
1 -1.09853 -2.87836 19.225
2 3.24403 -2.78464 18.6199
6 3.63568 0.866172 17.1091
1 4.0161 -2.48318 22.4484
2 7.66033 -0.194397 22.0759
3 5.1592 3.8394 20.1528
1 7.62141 0.258318 26.0869
2 9.30858 4.48367 25.5624
6 6.06478 5.93193 23.2618
1 8.75358 5.17018 29.2759
2 7.26739 9.22321 28.5823
6 3.62809 8.3167 25.881
1 5.71852 9.31791 32.247
2 2.74379 11.6478 31.3759
4 0.949995 8.81151 28.3211
1 0.857253 11.0218 34.9236
2 -2.94962 11.7553 33.2954
4 -2.45438 8.88072 30.3188
1 -4.50224 10.338 36.6496
2 -7.79872 10.0305 34.7103
4 -5.94533 7.28221 31.3741
1 -9.53439 8.30917 37.5443
2 -12.2432 6.09412 34.7263
5 -9.31358 2.7762 31.9822
1 -13.5192 4.13749 37.2872
2 -13.8741 0.946283 34.5446
4 -10.0655 0.261318 33.7564
1 -15.473 -1.68795 37.4657
2 -13.3082 -4.68607 36.449
3 -9.18366 -3.29557 36.9922
1 -13.761 -6.48407 40.2309
2 -10.2763 -8.26581 40.2389
12 -8.58083 -4.45366 39.9464
190
Atoms. Timestep: 8000
2 2.70553 -3.01199 39.7851
7 -1.73868 -3.21287 40.4466
1 3.36199 -3.71407 36.0568
2 0.473958 -6.24726 35.6577
4 -2.49795 -3.96099 37.2688
1 0.475479 -6.04129 31.8251
2 -3.70827 -7.00648 31.5143
3 -5.56852 -3.36729 33.6547
1 -3.72293 -5.63057 27.9697
2 -7.40543 -4.41571 28.0269
6 -6.78736 -1.70369 30.4435
1 -6.99201 -3.0327 24.4597
2 -9.54448 0.0916355 25.3836
3 -7.13205 2.57447 28.8923
1 -9.21672 1.83667 22.3966
2 -9.19196 5.36432 24.2573
3 -4.85041 5.14671 26.7499
1 -8.58351 7.24267 21.4312
2 -6.70433 10.2828 23.0013
3 -2.73235 8.19047 25.4509
1 -5.26941 10.7359 19.538
2 -2.03516 12.3532 20.7706
5 1.03801 8.9143 23.3046
1 -0.474841 12.6327 17.2591
2 3.46271 13.1995 19.1124
5 4.49697 8.57808 21.0195
1 5.07307 12.7995 15.953
2 8.44283 10.8721 17.5352
4 6.3267 7.55834 18.6908
1 9.75864 10.0043 13.8703
2 11.3074 6.1962 14.7121
5 7.17924 3.41299 16.0497
1 11.9751 5.32457 11.1957
2 10.2151 1.52133 11.6719
6 6.67147 2.3546 12.7354
1 10.3246 0.966824 7.71343
2 7.45731 -1.51931 8.37801
5 3.32657 0.72331 9.52126
1 7.14265 -2.97542 5.11411
2 2.85704 -3.60411 5.3363
3 0.871524 0.761815 6.38933
1 2.33904 -4.25343 1.52727
2 -2.1182 -2.733 1.55038
5 -1.93284 2.1969 3.25462
1 -2.40996 -2.11011 -1.84315
2 -5.23811 0.507596 -1.81378
5 -2.97804 4.78652 0.190489
1 -5.03899 0.865852 -5.74314
2 -6.64599 5.0504 -5.51018
4 -3.72705 6.55715 -2.66497
1 -6.07699 5.9913 -9.328
2 -5.14776 9.67383 -8.60813
4 -2.18454 8.19879 -6.13541
1 -3.96008 9.73235 -12.4933
2 -0.887311 11.9837 -11.6443
4 0.411588 9.76337 -8.86997
1 0.502801 10.7929 -14.7647
2 4.38671 10.8018 -13.6943
6 3.85612 7.8569 -11.0216
1 4.95057 8.95006 -16.9307
2 8.75514 7.36386 -15.3255
4 6.13481 5.11023 -12.3781
1 9.20171 5.39231 -18.4208
2 10.6915 1.99669 -16.0499
3 6.64125 0.608631 -14.2406
1 10.5367 0.423367 -19.363
2 9.15612 -3.72211 -17.7378
4 5.57591 -1.83949 -16.1524
1 8.73919 -4.9706 -21.6384
2 5.6821 -7.68439 -20.2617
5 2.28081 -4.65601 -18.738
1 4.89142 -8.03994 -23.5506
2 0.977165 -7.92748 -22.4974
6 0.43812 -3.99214 -21.9269
1 0.268459 -8.66518 -26.2714
2 -3.61561 -7.04199 -26.2175
4 -2.10657 -3.35439 -24.5059
1 -3.28437 -7.22869 -29.9223
2 -5.91314 -3.83035 -29.9478
6 -2.60216 -0.998505 -28.4409
1 -5.98552 -3.4752 -33.8947
2 -6.27925 0.79081 -33.1695
6 -2.33238 1.24032 -31.8909
1 -6.50748 1.85633 -37.0547
2 -4.31338 5.69519 -36.6931
6 -0.966461 3.63795 -35.0464
1 -4.00017 6.33031 -40.6349
2 0.121105 8.30889 -40.4573
3 2.79005 4.97889 -37.7469
1 0.888311 7.1602 -43.9925
2 4.96636 6.84777 -43.2874
6 4.93334 3.55177 -40.297
1 5.37534 4.74841 -46.6732
2 9.00554 3.75609 -45.1263
13 7.76144 0.0717263 -42.2316
2 8.44828 -8.19286 -38.5216
10 6.9487 -4.86327 -40.3241
1 9.50399 -6.94341 -34.591
2 10.9293 -3.65839 -36.0299
5 7.41274 -0.773836 -37.8931
1 11.5783 -2.02186 -32.675
2 11.231 1.83095 -34.2964
4 7.3858 1.42232 -35.6217
1 11.273 3.37315 -30.684
2 8.6458 6.24313 -31.6396
5 4.11643 4.33505 -33.2216
1 8.12726 7.60771 -27.8763
2 3.97823 8.98678 -28.7033
5 1.49928 5.33839 -30.2853
1 3.15791 9.55369 -25.3513
2 -0.986234 8.64913 -26.2164
5 -1.22435 4.17262 -27.5177
1 -1.91889 9.1478 -22.2186
2 -5.57738 6.50504 -22.0626
3 -3.14719 2.33473 -23.4562
1 -5.6307 6.39091 -18.0624
2 -7.09307 2.13421 -18.4773
5 -3.15851 -0.358527 -20.1451
1 -6.88611 1.62873 -14.9874
2 -6.52943 -2.69727 -15.5005
6 -2.58129 -2.26704 -17.0884
1 -6.31656 -2.79507 -11.5924
2 -3.43129 -5.92433 -11.6002
3 0.177043 -3.84686 -14.0516
1 -2.19287 -5.39699 -7.67673
2 1.54301 -5.63798 -8.64263
4 2.17971 -2.68048 -11.6455
1 2.3289 -4.19832 -5.06286
2 6.48818 -3.43408 -6.36903
3 5.61984 -0.11245 -9.44782
1 7.09378 -1.62588 -2.99649
2 9.27936 1.29089 -4.82341
5 6.18532 3.86893 -7.68881
1 9.62634 3.49345 -1.26329
2 9.4254 7.29139 -3.20401
3 5.38336 7.17978 -6.06707
1 8.71673 9.53866 -0.143463
2 6.05646 11.9298 -2.09777
3 2.68819 9.30051 -3.38559
1 5.04601 13.8379 1.2914
2 1.41244 14.7577 0.577448
3 -0.255276 10.8255 -1.04642
1 0.719314 14.8561 3.99511
2 -3.13643 13.6525 3.61272
6 -2.00378 9.8166 2.0288
1 -3.4845 13.5588 7.55447
2 -6.16952 9.8938 6.86469
6 -3.2266 7.33529 5.15902
1 -6.39384 8.92303 10.6873
2 -7.64559 5.39771 10.0171
4 -3.95825 4.46459 7.3636
1 -7.13677 4.638 13.3232
2 -5.86508 1.0051 12.0951
6 -2.14066 1.86247 10.4479
1 -5.33334 -0.782938 15.7339
2 -2.01318 -2.98949 14.7054
5 1.9211 -0.0908402 13.6898
1 -1.4182 -3.99004 18.5097
2 2.72969 -4.46654 18.0544
6 3.76491 -0.904244 16.6387
1 3.55028 -4.48727 21.4074
2 7.58592 -2.30258 20.8101
3 6.03062 1.88691 19.499
1 8.17207 -2.24363 24.241
2 9.95324 1.46378 24.5538
6 6.55067 3.46574 22.9429
1 9.38244 1.501 28.399
2 8.24789 6.04228 28.5887
6 5.38396 5.75837 26.0212
1 6.96416 5.30805 32.0398
2 4.62459 8.46837 31.9295
4 2.52711 6.80676 28.1334
1 3.04356 8.10037 34.8387
2 0.0761188 10.0956 33.1576
4 -0.826939 6.96573 30.6431
1 -1.93425 10.1188 36.4797
2 -5.37252 10.0043 34.2092
4 -4.3645 6.44044 32.3834
1 -7.43305 9.05881 37.4853
2 -10.2658 7.08976 35.0219
5 -8.12113 3.20904 32.8492
1 -12.2813 5.50248 37.8696
2 -13.4008 1.71974 35.9152
4 -9.34114 0.854441 34.6876
1 -14.0147 0.127032 39.0419
2 -12.9458 -3.3429 37.206
3 -8.23215 -2.91947 37.0881
1 -13.6199 -5.03472 40.4427
2 -10.2628 -7.43562 40.345
12 -7.24688 -4.58671 39.8293
190
Atoms. Timestep: 10000
2 0.558426 -4.92791 41.263
7 -4.25362 -4.49598 41.8728
1 1.07502 -4.35262 37.2213
2 -2.17667 -6.76471 36.2151
4 -4.34011 -4.24204 38.4543
1 -1.88559 -5.84726 32.593
2 -6.246 -6.48417 32.6223
3 -7.39785 -3.03405 34.9188
1 -6.88743 -5.69851 29.2187
2 -10.3045 -2.99704 30.2855
6 -8.16712 -0.34459 32.425
1 -10.6772 -2.21666 26.5824
2 -12.0534 1.30268 26.9553
3 -8.90573 3.5432 30.0023
1 -11.1221 2.25144 23.4351
2 -10.94 6.30311 24.2764
3 -7.40366 6.14299 27.4105
1 -10.2259 7.39751 20.8404
2 -7.73448 10.5046 22.4876
3 -4.37827 8.30242 25.4094
1 -6.57508 11.1002 19.382
2 -2.71028 12.5066 20.8912
5 -0.749905 8.60037 23.2514
1 -1.12803 12.4121 17.2257
2 2.09265 11.2913 18.4765
5 1.80141 7.10354 20.4433
1 3.47515 11.0393 15.2549
2 6.90581 8.63154 16.6972
4 4.0332 5.83032 18.5082
1 7.70109 8.15656 13.2119
2 8.396 4.2876 13.4935
5 4.04559 2.31549 14.695
1 8.87895 3.34348 9.53481
2 7.18503 -0.74414 10.4616
6 3.62094 0.513524 11.5238
1 6.44746 -1.9161 6.59917
2 3.00115 -4.13191 7.83796
5 -0.350595 -0.657995 9.37952
1 2.11521 -4.88174 4.31637
2 -2.35895 -4.75925 4.97376
3 -2.58048 -0.433896 6.26515
1 -2.62076 -4.60652 0.922671
2 -6.1811 -2.37564 1.09195
5 -4.43878 2.17535 3.02517
1 -6.17974 -1.94296 -2.29705
2 -7.59444 1.50304 -1.52037
5 -4.01887 4.33943 -0.323937
1 -7.78747 2.19109 -5.16519
2 -7.00621 6.35535 -4.77656
4 -3.4108 5.68314 -3.10233
1 -7.09558 6.58831 -8.33052
2 -3.91636 9.38021 -8.79096
4 -1.2632 7.09069 -6.6712
1 -3.45593 8.51044 -12.8109
2 0.162694 10.0668 -13.1272
4 1.36815 8.09656 -9.63945
1 1.32918 8.23022 -16.0911
2 5.22731 8.30001 -14.8167
6 4.53779 4.78506 -12.3894
1 5.85202 6.49927 -18.2144
2 8.78061 4.25676 -16.525
4 5.89027 1.84165 -14.199
1 9.28804 2.81824 -19.6477
2 10.9037 -1.10649 -18.2406
3 7.1397 -2.40878 -16.4197
1 10.8069 -2.75922 -21.7556
2 9.92583 -6.16633 -20.5799
4 6.48185 -4.75607 -18.6582
1 8.8588 -7.37848 -23.9797
2 5.68534 -9.70135 -22.4841
5 2.09811 -6.4256 -21.1676
1 4.49594 -10.8639 -26.1577
2 0.0956054 -11.2514 -25.027
6 -0.311147 -7.14768 -23.8219
1 -1.11885 -11.8146 -28.846
2 -4.96853 -9.6606 -27.9503
4 -2.93979 -6.46654 -26.3402
1 -5.56706 -9.02778 -31.6888
2 -7.84553 -5.32036 -30.4141
6 -4.61915 -3.02631 -28.9824
1 -8.43952 -4.3451 -34.1867
2 -8.52907 -0.206023 -33.111
6 -4.53353 -0.277223 -32.1991
1 -8.8407 1.29678 -36.5593
2 -5.76751 4.2474 -36.1412
6 -2.58849 2.0045 -34.9919
1 -5.12233 5.06847 -39.931
2 -1.3357 6.84268 -38.9405
3 1.22212 3.46502 -37.011
1 -0.809069 6.59548 -42.6391
2 3.17896 6.70494 -42.172
6 3.51426 3.60664 -40.1193
1 4.13128 5.92508 -45.8821
2 7.31824 3.35444 -44.7961
13 5.19062 -0.0965008 -42.5932
2 4.76092 -9.28529 -39.9818
10 3.73984 -5.47504 -41.49
1 6.16438 -8.6752 -36.5612
2 8.59972 -5.53568 -37.9957
5 5.57538 -1.62307 -39.3356
1 9.46271 -4.42417 -34.1398
2 9.11745 -0.558614 -34.1568
4 5.51509 -0.494691 -36.2752
1 8.48156 -0.231887 -30.6168
2 7.01081 3.03125 -31.1704
5 2.56566 2.58936 -33.3001
1 6.40672 3.63276 -27.1305
2 2.95058 5.80837 -27.9184
5 -0.311382 2.75524 -30.1256
1 1.81509 6.22916 -24.3724
2 -2.3868 6.40094 -25.2039
5 -3.30849 2.41913 -27.2221
1 -2.72529 5.6724 -21.5685
2 -6.29974 3.03668 -22.3854
3 -3.98608 -0.693324 -24.9164
1 -6.21831 2.08018 -18.8772
2 -7.13714 -1.34544 -19.3156
5 -3.9309 -3.53009 -21.6596
1 -6.78869 -1.76938 -16.0851
2 -5.62221 -5.54991 -16.7373
6 -2.43839 -4.73456 -18.6647
1 -4.39493 -6.19499 -13.5729
2 -1.9181 -9.30468 -14.7338
3 1.22116 -7.0291 -17.1703
1 -0.313302 -10.0572 -10.9224
2 3.44804 -9.91886 -11.8385
4 3.18121 -6.53502 -14.4662
1 4.20227 -8.8092 -8.32383
2 7.46458 -6.91373 -9.44727
3 5.78077 -3.48945 -11.9526
1 7.9915 -5.47817 -5.91416
2 9.86243 -2.36136 -7.40689
5 6.93835 0.314355 -10.229
1 9.78797 -0.260347 -4.01532
2 10.3174 3.40493 -6.00892
3 5.75387 4.57325 -7.79184
1 10.4211 4.56243 -2.33489
2 8.45026 7.65709 -3.13984
3 4.13692 6.51723 -4.59128
1 8.14672 9.01647 1.01111