156
Atoms. Timestep: 0
15 -33.2156 30.8804 30.1741
15 -19.1234 5.85631 45.2559
15 -14.2489 -28.0259 -47.6277
15 29.1312 20.789 -12.7228
15 37.3343 -6.7637 -21.3331
15 -33.976 -3.46273 23.1215
15 -40.8005 -42.9412 7.97217
15 -39.0618 38.5445 38.7438
15 -38.8755 46.3872 30.6685
15 -26.5906 -38.9485 -27.0246
15 3.79883 -22.1642 -46.1442
15 -16.0271 8.71245 9.71214
15 -20.7711 44.4635 31.6863
15 -18.3988 23.5947 2.47529
15 18.8783 10.929 45.7116
15 47.5453 26.953 -7.75114
15 20.6668 36.1526 -0.692333
15 -21.361 47.0908 -12.1479
15 -32.6173 -41.7848 -15.7607
15 48.0513 -18.3754 -4.70922
15 -28.9733 35.4235 23.1266
15 -25.1175 -30.6036 -18.161
15 34.5946 -1.37475 -23.6975
15 16.2809 30.2264 49.8973
15 -31.2438 -0.895236 10.8263
15 -35.5322 -3.34999 -12.2207
15 6.71664 -32.6832 -26.0681
15 -43.9757 -4.04423 -28.9774
15 -6.12355 13.3385 -20.7622
15 28.1158 11.3897 10.8625
15 -26.5934 32.4164 -3.71405
15 46.5331 -42.7011 15.6823
15 -21.6278 41.8936 -35.6924
15 4.67472 8.17446 44.534
15 4.572 26.9306 -6.36122
15 -34.6017 41.3984 40.2888
15 3.17762 -1.88493 -42.3944
15 27.1095 4.13938 3.56137
15 48.1321 48.0158 -33.1001
15 -22.63 26.1316 28.2896
15 38.2325 49.5382 10.706
15 -15.4816 46.0713 18.0049
15 -49.7993 -25.5565 9.89849
15 -35.4917 29.1182 -31.9271
15 -40.9576 -16.3098 45.0036
15 2.68114 -0.911499 36.402
15 -7.03006 -47.7339 -15.4829
15 0.575547 29.3756 38.6565
15 -45.8631 27.5078 36.6723
15 -28.9632 -45.1223 12.8039
15 49.3264 43.1102 12.3421
15 10.0324 -22.3714 8.41338
15 -21.9627 -22.1706 32.8569
15 37.9358 -7.6623 11.9751
15 -43.9913 1.38006 45.6653
15 -48.9877 -45.9388 -5.24622
15 37.4144 -2.96886 -2.98011
15 -28.0685 47.6067 -23.6045
15 -39.4121 -48.2564 -46.0967
15 47.2602 -27.2196 -41.219
16 10.0642 -27.8932 -48.1088
16 -27.5938 32.1391 -20.4802
16 30.8196 -39.8236 7.34919
16 13.6765 48.1122 49.6869
16 -24.3484 -45.879 1.06696
16 -28.6832 -44.8667 5.12816
16 16.0706 42.5477 -47.8407
16 -36.9095 -35.5208 49.766
16 -6.6107 -27.6726 -25.71
16 2.17032 32.3915 -3.60324
16 4.06155 -45.2022 -21.4641
16 33.5814 35.6174 -11.2877
17 -9.06943 -0.706137 -13.1754
17 -9.38253 24.9454 -9.05442
17 41.6844 46.2623 -3.92109
17 -3.18742 12.3329 -11.3734
17 -1.02811 25.4234 3.10578
17 -1.26211 -35.0906 28.1729
17 0.247496 8.29872 -49.4998
17 24.5375 -39.531 32.8918
17 -29.0657 14.5306 37.6895
17 -0.529841 -1.88803 23.3069
17 38.1825 39.0425 -27.3992
17 -24.9929 -20.34 47.5462
17 15.9527 -28.6556 43.8084
17 -37.9684 18.157 6.14132
17 0.658195 -32.8711 -18.4353
17 -46.236 15.8668 -3.52588
17 31.9369 -33.8857 -45.2272
17 32.4371 40.6518 -34.7581
17 15.3289 -38.414 29.7725
17 3.01839 11.0562 -22.1156
17 -23.6747 -0.76129 -33.073
17 -1.07397 24.2458 -3.41301
17 -3.52779 -9.80151 17.9314
17 46.422 -47.1117 3.21735
17 -22.0133 -43.3478 -30.9159
17 24.4608 38.5891 -14.8016
17 29.2336 21.0262 -24.1498
17 44.4755 -13.6449 -12.5637
17 24.248 39.3735 48.4925
17 -47.8676 -34.3012 -2.26883
17 -30.9406 14.6248 -28.023
17 15.6464 -38.903 12.1755
17 -16.4221 1.37764 -35.5945
17 19.6663 -2.20039 -32.7062
17 -27.1164 25.7863 -26.0539
17 -8.03222 0.247086 -37.4648
17 27.1662 -20.5193 33.5614
17 -46.9836 -26.0437 -30.0835
17 -9.54732 48.2043 -40.7101
17 -11.0549 -49.6633 -25.0113
17 36.6763 -30.6039 39.6135
17 -41.3467 35.0426 -49.2895
17 20.8288 -31.3796 2.0881
17 35.2343 38.2867 49.8877
17 -47.4719 -38.8296 25.674
17 -23.5258 3.13815 -24.0789
17 -10.9907 -19.6956 5.40181
17 -27.4293 -16.6792 29.3581
17 -7.51286 23.7735 27.5623
17 26.7658 49.3949 47.2952
17 17.0897 28.877 -49.0418
17 -30.9345 16.6393 -49.5847
17 44.7395 43.1135 3.55342
17 -29.3394 -17.8772 33.8578
17 26.0624 4.69349 -32.8214
17 5.42049 47.1806 40.952
17 -17.0172 -1.04228 -46.3294
17 -39.1181 -24.2765 -46.9344
17 -41.8229 42.1027 -38.8862
17 40.5148 9.19246 39.9907
17 41.473 28.3703 4.10196
17 30.7179 47.4358 -29.2587
17 -15.3134 -37.164 -4.02239
17 -31.4556 38.8984 -49.3289
17 -14.2771 -5.68113 47.8517
17 -23.325 27.3017 -3.19055
17 -19.6544 38.1836 22.5329
17 -5.47506 36.8755 -26.1719
17 -15.4843 28.3485 -47.8016
17 38.6176 9.0664 49.6342
17 -40.6411 -9.80042 41.8096
17 -26.7863 24.8862 -45.3545
17 19.1913 43.4306 43.5439
17 19.8624 -20.8465 -12.1372
17 17.7142 5.82849 -34.8355
17 -35.4764 36.1741 -46.6519
17 37.0566 -30.4147 49.7087
17 1.69226 14.1102 36.5842
17 25.5204 48.6259 14.9327
17 27.7188 37.2435 -26.0009
17 19.1627 -30.1838 -10.9152
17 17.3521 8.86995 11.6689
17 -29.6206 -8.89223 -46.3285
17 -26.2725 -21.8356 -26.7432
156
Atoms. Timestep: 2000
15 -11.2254 35.3891 -49.6577
15 -13.5686 9.20797 31.1205
15 -15.5246 -19.4854 -44.7189
15 17.037 4.38144 -10.8235
15 48.9778 2.71463 -12.9665
15 -31.4385 -3.52016 33.9955
15 -32.3785 26.8002 22.3182
15 -44.3879 40.0453 40.8068
15 -30.6149 49.5782 27.2278
15 -27.0552 37.4481 -26.2096
15 4.35727 38.8318 39.1395
15 -14.4587 -3.92186 10.6705
15 -29.1216 28.8836 -44.8112
15 -19.5918 17.8201 10.4388
15 -3.16861 15.4751 -48.9768
15 44.3694 37.3874 -7.04162
15 18.917 31.119 -6.92627
15 -33.7004 41.5736 -4.49363
15 38.6629 16.827 -35.06
15 -32.1015 -12.228 -12.0469
15 -20.2403 43.8657 6.04124
15 5.7645 -19.9022 -22.9744
15 -40.0584 -5.13163 -22.9935
15 -3.8193 -31.1449 28.2898
15 -45.3991 14.6588 10.6975
15 -6.50686 3.53898 -27.8695
15 2.92594 -35.6831 -14.9408
15 25.5764 -10.3983 -39.0834
15 -5.00236 -1.08406 -12.6476
15 30.0056 13.7031 6.30014
15 -4.71155 46.4618 -0.18506
15 45.5106 30.5639 1.99931
15 -38.6323 23.7469 45.3853
15 4.09264 13.2815 18.8664
15 -15.1192 45.3433 -20.4077
15 -33.0611 46.1191 -49.4915
15 -4.09813 11.8211 46.4889
15 33.201 14.2045 -17.4657
15 47.7113 18.4512 -30.4045
15 -5.57297 15.9468 30.2843
15 49.8349 45.9824 8.62224
15 -9.72995 20.5328 14.4085
15 43.305 -16.5885 11.8631
15 -35.1834 25.5868 38.9072
15 -31.9832 -1.27402 49.1694
15 -4.68989 8.42862 34.8233
15 -9.05395 -43.3112 7.21036
15 -14.1717 27.7259 -48.8433
15 -33.5508 19.7353 32.4719
15 -18.2257 -43.0422 19.6097
15 35.2931 -47.4912 18.4839
15 0.189663 -27.2348 -2.88891
15 -18.0451 -40.5838 -39.5232
15 -32.4877 -3.74659 20.2405
15 47.2281 -22.5006 -48.9587
15 26.0128 -26.8436 -27.2706
15 34.2813 -24.9322 -16.9395
15 -25.6168 -28.3388 40.9805
15 -47.0258 -35.5638 -48.6689
15 46.9864 -19.8009 -41.0511
16 12.1879 -40.7777 17.7173
16 -19.1993 19.4013 -40.6118
16 27.0539 -21.7135 19.3976
16 25.9989 49.7304 32.1029
16 -31.225 48.3743 -40.1504
16 -44.4249 -37.5401 9.19136
16 31.7504 37.9416 -49.1573
16 -31.3805 -27.3698 44.176
16 -21.6487 -10.0103 -36.9226
16 -1.50236 21.5836 -17.1642
16 28.9548 -37.1865 -36.4543
16 30.103 49.7944 -30.779
17 -27.54 -0.41942 -17.7508
17 12.8415 37.3385 -8.11711
17 43.3495 -41.0003 13.9655
17 -19.4291 15.8207 -16.256
17 15.1285 19.1368 -0.798726
17 -4.13675 -47.1694 23.0027
17 0.839452 11.2053 46.3173
17 15.4838 -26.0873 11.8375
17 -30.2632 21.0291 -48.0106
17 -0.0285332 16.4488 21.5701
17 37.9159 42.7035 -10.4365
17 -34.5908 -34.6865 -37.841
17 14.8473 -26.3143 30.2938
17 -43.1385 34.7167 5.01038
17 -2.92813 -40.3764 -30.1917
17 -47.1119 -0.407896 4.02908
17 29.1122 -41.4279 -35.059
17 36.6955 41.0748 -47.5354
17 9.22742 -11.0782 10.6314
17 2.55156 16.075 -12.178
17 -35.6173 13.0957 -15.862
17 -24.3788 36.7037 -5.49373
17 -26.9151 -8.93269 14.9486
17 -49.4597 -44.1381 0.728835
17 -12.3601 -24.907 -30.0026
17 41.959 38.562 -11.8459
17 29.0036 12.9591 -13.4689
17 41.7041 3.28869 3.83766
17 28.6199 35.595 34.5603
17 -16.0646 -34.1108 -19.6987
17 -12.6007 11.5403 48.9577
17 18.9449 -22.4148 8.65295
17 -22.6315 -8.92937 -43.5818
17 -3.87531 1.03215 -7.68774
17 4.93758 28.8323 -28.4762
17 -11.1918 11.3804 -39.1003
17 14.5207 -10.3596 31.2171
17 46.6652 -31.8504 -28.8522
17 -5.40248 -49.0104 -31.6223
17 -15.888 45.2387 -14.0956
17 48.7122 -42.922 48.2797
17 -33.8834 48.7842 -49.3703
17 33.3656 -18.0832 -1.32171
17 28.604 34.6072 -47.3906
17 45.3398 37.6661 20.2193
17 -10.0887 0.571948 -14.5874
17 13.6601 -39.6573 28.4566
17 -32.591 -20.5242 14.0673
17 -9.25519 4.11664 30.6264
17 20.3228 -38.9971 -43.8216
17 21.9677 13.1809 -49.7733
17 -22.9138 15.8465 46.0474
17 -49.0202 31.9259 -4.08934
17 -39.7 -4.061 42.4495
17 -43.5383 17.0591 -27.0644
17 -4.2745 39.0267 -48.1725
17 -24.1597 12.0007 36.0796
17 -43.8343 -11.4577 -26.3431
17 -40.4152 47.6033 -48.1303
17 -43.4507 23.6346 16.4861
17 29.6667 33.8454 12.7763
17 31.9092 -45.6028 -39.3812
17 -8.47361 -46.2855 0.195137
17 -24.047 -39.8899 40.2474
17 1.80853 3.38372 -25.2646
17 -23.2094 25.0924 5.48447
17 -31.3717 49.4317 23.9242
17 -5.63456 42.7502 1.58368
17 -20.6892 23.634 -39.1999
17 38.6741 -2.75596 -38.3342
17 -37.3756 -13.2499 -46.0812
17 -40.8728 27.5459 49.1816
17 -9.86732 39.8425 -34.35
17 15.3011 -10.8433 -36.518
17 6.80712 -9.46879 -48.5821
17 -22.36 31.2936 -48.3754
17 45.2922 -21.8521 46.1728
17 -15.68 24.0289 36.4622
17 18.236 -46.6529 12.4032
17 34.8584 20.3187 -28.0676
17 41.6053 -26.517 0.516144
17 42.3604 18.5261 1.87158
17 -13.4141 -17.7708 -44.1864
17 -45.8138 -28.9622 -20.437
156
Atoms. Timestep: 4000
15 -6.51647 30.0106 42.7474
15 -35.9644 8.90639 30.7066
15 2.01635 -20.9635 -45.792
15 30.666 32.8804 -8.51791
15 -44.8682 13.5402 2.56923
15 -40.7007 -21.2192 29.2168
15 46.3567 22.458 38.0188
15 -28.0989 -30.6916 48.9869
15 -41.1754 47.386 26.2764
15 -34.6694 -50.6961 -34.3263
15 5.55878 46.5783 45.7447
15 -35.8844 -1.24718 22.0268
15 -34.4792 44.1826 45.604
15 -10.6485 36.2284 -17.1471
15 -11.9731 24.7797 18.4515
15 -41.3646 43.3393 -4.03151
15 6.90875 35.8408 -3.63826
15 -43.3496 38.3294 10.4496
15 27.2321 4.42255 -36.6491
15 -24.4544 -11.2832 -3.77969
15 -44.6302 -42.1924 -2.30029
15 1.65745 -26.0897 2.38493
15 -45.3519 -38.6473 17.659
15 -11.4918 -47.4824 39.6602
15 -40.9038 27.3642 4.48391
15 11.1723 -5.97666 -48.964
15 -24.9613 -37.1297 -39.1663
15 30.8051 -12.5549 -47.1515
15 -2.55835 0.239217 -9.22572
15 42.4349 39.1572 30.3862
15 -28.5201 -41.8233 -6.66801
15 44.7961 -44.1522 -5.17471
15 34.0705 0.431143 32.4309
15 -21.0846 3.84454 14.2617
15 -5.68733 -23.7495 -8.1176
15 -33.7262 41.6976 -45.013
15 22.1376 19.5113 -49.0512
15 32.6483 7.07445 -24.1849
15 -47.0316 14.3056 -6.88097
15 -13.3368 36.7446 25.6955
15 -34.56 38.7743 -1.54456
15 7.35368 30.9853 16.729
15 -37.1475 -12.7562 -15.6684
15 -31.9865 30.6502 33.6233
15 -36.865 15.5304 -37.3895
15 -11.7889 16.3583 30.9055
15 -12.021 -46.236 1.47377
15 -9.69067 -7.15406 42.4893
15 -25.8636 33.2992 42.4382
15 -11.8555 -37.6775 37.0424
15 36.3592 -42.3174 40.0401
15 -1.35046 -44.7554 3.7798
15 -2.05311 -35.309 -32.3199
15 -26.5384 15.9426 33.6334
15 -41.8321 -34.6777 32.139
15 21.668 -44.1325 -47.8672
15 17.9972 -3.24598 -25.5228
15 -19.43 -34.2559 36.0568
15 -41.3122 -24.1842 -39.9152
15 15.1523 -28.2503 -38.2043
16 19.8772 -33.8659 24.3502
16 -41.8672 0.239751 -21.5298
16 -5.09842 -21.2454 21.0951
16 31.7017 33.3156 26.1497
16 -17.2581 41.0276 -32.7315
16 31.0864 -12.9108 20.1358
16 17.4167 38.0267 46.1601
16 -25.4738 -20.6496 16.8914
16 -17.1125 -9.4405 -20.9412
16 -9.91431 19.6081 -9.87523
16 30.8321 -35.0279 -17.0211
16 49.6263 29.3429 -44.2451
17 -38.9233 10.5106 -30.5985
17 4.24282 48.1944 -4.49706
17 -47.0047 -49.3154 31.94
17 -7.71786 22.4068 -21.4908
17 8.519 41.3183 11.0115
17 0.604907 -42.9715 4.57918
17 -10.38 21.4714 -48.2072
17 3.46342 11.1487 -6.47003
17 -31.0602 28.128 38.042
17 16.5596 19.75 38.0354
17 48.0864 44.1829 -0.0086893
17 -47.2617 -18.3883 -30.3538
17 -16.0976 -9.67792 28.0714
17 -46.9829 28.6947 26.3968
17 -8.48633 48.7302 -35.7836
17 -32.7449 -11.9341 27.6238
17 17.8266 -32.0103 -18.199
17 19.9707 -47.9763 -40.7785
17 1.8646 2.19471 1.68022
17 -3.75889 18.6593 -8.83341
17 -48.4135 14.1949 -2.28595
17 -33.4672 39.7791 -6.24191
17 -30.1938 -21.3016 27.3243
17 -43.9359 -32.0619 4.86211
17 12.3856 -5.73846 -46.5206
17 -43.3508 41.931 -0.625161
17 19.6036 7.82085 3.11329
17 19.0101 -9.5395 21.7849
17 21.6333 40.0986 44.5941
17 -18.5844 -41.3966 -7.68859
17 -11.9766 5.15308 30.3262
17 8.19898 -25.0431 20.2623
17 -15.2607 -2.95886 -23.5873
17 -19.783 -12.5905 -12.3504
17 6.18846 29.1422 -34.8022
17 -9.81283 24.2172 -44.145
17 2.21766 -17.3466 23.8771
17 37.5789 -40.6264 -37.1001
17 8.64151 -36.484 -36.6581
17 -19.0334 33.3692 -30.7749
17 -47.4085 -45.7264 42.9404
17 -33.413 -43.2231 -47.3412
17 27.8874 -20.9796 -15.8362
17 21.0748 31.3071 -46.5738
17 48.3073 30.0358 10.9298
17 -25.9548 1.44559 -5.25226
17 17.0728 -41.0986 27.3414
17 -14.0844 -24.28 20.9344
17 -17.2367 4.42131 19.6699
17 24.6983 -36.016 -22.7338
17 32.591 10.0509 -32.4142
17 -29.8459 18.8589 -30.8972
17 -50.2597 8.23816 -5.77835
17 -37.625 0.904605 27.8588
17 -35.2706 8.79008 -19.1381
17 -0.556018 40.9167 39.5466
17 -37.8231 10.593 40.2382
17 -30.6083 -13.7494 -10.9157
17 -33.9553 43.6056 -36.3455
17 42.3941 24.2324 36.1395
17 24.357 30.6923 -5.09189
17 42.464 43.4073 -39.6766
17 -13.6909 38.0732 16.223
17 -17.0983 -41.2715 -45.3644
17 1.14427 8.42931 -19.1174
17 -32.4797 25.7482 23.4923
17 -25.6205 -36.0349 28.6503
17 -9.28534 -24.5042 4.0033
17 -28.2185 17.3465 -36.5421
17 33.5575 -16.5659 -36.8892
17 -27.6004 1.37517 36.6808
17 48.6061 20.1396 -32.2319
17 -22.2819 47.2873 -28.1151
17 33.2723 -5.00118 -47.5251
17 -11.6913 -11.4064 -33.4331
17 -20.1185 39.0279 37.9917
17 -37.7389 -35.3007 42.0731
17 -9.38083 44.9857 -41.2652
17 33.2137 -30.7075 21.0134
17 -46.0566 -40.6952 -37.2416
17 37.7645 -34.3474 7.4755
17 -49.6717 12.0569 4.77126
17 3.1818 -21.3519 -43.4852
17 -43.9427 -20.3329 -15.628
156
Atoms. Timestep: 6000
15 5.81232 12.4129 49.1501
15 -31.1789 18.6939 23.5292
15 -10.3258 -30.8067 -40.3475
15 -38.0214 33.7653 -9.89765
15 -48.6957 12.1239 -1.86801
15 -24.0053 -37.6894 13.4043
15 -40.921 18.8286 14.1864
15 -39.7351 -45.3228 -31.7485
15 -43.435 -44.311 1.03059
15 -48.4574 -45.4733 49.3084
15 -9.4177 -27.9267 41.9071
15 -32.5481 11.983 36.4043
15 -40.0247 34.7316 41.9182
15 -11.1322 25.7107 -9.77501
15 -1.6524 2.67246 5.47825
15 -16.562 37.479 -10.7229
15 18.4376 21.9578 1.91585
15 -44.1634 30.1472 27.1474
15 -7.49358 3.14468 -22.5108
15 -44.246 -12.5005 -30.2941
15 -44.0493 -34.664 11.0968
15 4.09359 -33.9407 22.32
15 -37.5843 -34.9452 12.7006
15 11.0697 -37.5237 36.9697
15 -25.9855 15.8167 -3.52438
15 18.279 -3.64203 49.2458
15 -15.1234 -30.1458 44.8893
15 46.8618 -6.96364 46.8664
15 5.02278 11.2232 -6.52426
15 39.3529 38.9927 36.2936
15 -42.3778 39.4766 -10.7464
15 9.95108 -28.9109 -20.4638
15 30.7859 -2.498 31.476
15 -6.96377 29.2994 4.78125
15 -20.5354 -27.7029 18.0523
15 -40.5331 -40.4969 -14.9266
15 17.4013 21.0594 -37.4599
15 31.2815 12.3939 8.00516
15 41.1945 12.0555 -28.1275
15 -19.5684 42.143 36.8464
15 -12.1436 -44.1187 -26.6242
15 -33.6626 41.301 21.4817
15 -9.86636 -28.1851 -15.278
15 -26.7069 8.91889 -44.1076
15 -33.143 24.2312 -31.1803
15 11.9545 16.6532 26.3437
15 -10.7596 36.3628 15.4096
15 17.5266 4.1832 -43.4355
15 -9.26389 -41.9549 48.6211
15 -4.94521 -20.4027 35.6557
15 27.3406 -32.5974 31.7458
15 -3.92642 -42.3402 3.20088
15 1.32278 -31.6317 -31.1268
15 47.7763 28.2703 44.2699
15 33.4437 -20.5729 10.0978
15 19.2915 36.943 -48.0835
15 -2.20618 -11.7153 -31.6847
15 -24.3708 -21.2504 -45.6922
15 40.8596 -22.2022 -43.2894
15 0.435257 -48.2112 -18.9427
16 14.1092 -21.5112 24.3006
16 -15.6683 6.11284 -31.3604
16 -8.94982 -11.0222 23.6969
16 30.1984 7.81749 22.2296
16 -17.8967 -40.5373 -50.0339
16 -30.1012 1.42564 3.78855
16 -7.4754 -48.7678 -38.5182
16 -40.7986 -1.49147 33.986
16 -19.0013 -7.76174 -11.4419
16 12.8581 8.28825 -21.5836
16 27.8231 -25.4116 -14.1994
16 -28.3691 30.7576 -26.1773
17 -34.5367 19.66 -26.6618
17 -9.17862 -23.7528 -3.77736
17 -35.4711 -31.3784 23.6898
17 -1.5793 23.4616 -5.8231
17 13.2627 -36.7702 11.344
17 -0.513507 -40.1753 -1.63719
17 -3.39208 8.0035 46.7125
17 6.95681 16.72 14.7822
17 -19.3137 32.1217 25.1434
17 12.5798 26.4113 29.2927
17 -47.5535 40.3014 -0.370373
17 49.6878 -37.2922 -31.4898
17 -11.9321 -23.6958 27.9248
17 -33.3469 18.1781 18.0065
17 -13.2619 -49.1474 -36.3558
17 -21.3336 -22.5911 47.4936
17 28.8933 -34.9743 -22.4758
17 33.0497 -48.2625 -47.4966
17 -6.5172 10.7889 6.88471
17 -14.3135 33.0795 12.9465
17 -46.7537 26.5418 -9.85204
17 -26.716 -49.2599 2.32996
17 -48.4434 -40.7772 6.92314
17 -30.1483 -34.6361 8.34054
17 19.1873 -2.95353 47.1058
17 -46.9703 33.9944 -3.24926
17 20.7409 9.70917 25.1594
17 35.6075 -2.48704 -1.7108
17 26.8513 40.0429 -45.6586
17 -20.2085 -43.8366 9.73259
17 -5.32258 -4.11629 25.5759
17 1.59373 -27.3047 29.9246
17 -21.0599 -9.36043 -21.3833
17 -30.2244 -6.29171 -13.5667
17 21.044 27.0106 48.7652
17 -2.88113 -44.3411 -47.4546
17 -16.8162 -13.9036 36.1356
17 22.1378 -9.44263 -47.5663
17 17.2625 50.6877 -40.441
17 -7.75133 -47.4517 -24.3375
17 -35.5415 -41.6104 -41.2748
17 -43.1288 -41.7054 -29.0889
17 11.088 -25.4646 -26.8832
17 9.28057 18.699 -28.5451
17 -49.0863 31.8768 24.7517
17 -21.8874 -6.85377 1.52858
17 6.83206 -50.3629 33.763
17 -11.6919 -27.2461 -47.8105
17 -10.9772 4.06839 29.426
17 36.761 42.976 -16.8615
17 28.6755 3.98167 -44.8922
17 -26.9114 21.5933 -9.35411
17 49.4696 0.0511009 -6.77979
17 -49.4741 6.61092 25.0447
17 -31.9615 16.8766 -9.21309
17 -3.27183 42.4208 23.9448
17 -11.9197 17.3235 38.3941
17 -23.0912 -19.8858 -0.472407
17 -42.022 -41.6742 40.461
17 29.1345 28.5521 45.5004
17 27.8941 36.6074 -3.63029
17 28.85 41.9433 31.7032
17 -28.1937 -49.432 7.84732
17 -21.5985 -43.1092 -48.9374
17 8.56154 12.2721 -15.5825
17 -37.1784 42.0239 17.4505
17 -8.17311 -36.8842 10.62
17 -9.61318 -15.3994 21.1763
17 -35.4588 28.1 -34.0413
17 -47.196 -24.0792 -31.4221
17 -25.7635 8.15078 41.0706
17 -38.9426 20.7859 -23.4809
17 -19.7885 38.9395 -37.3031
17 36.9846 8.00287 -47.0659
17 -20.6757 -1.36701 -35.6428
17 -32.8943 28.4698 42.1801
17 47.0357 -21.9078 32.5321
17 -12.9576 -38.9985 -39.0958
17 37.6294 -24.6442 24.1619
17 -39.7814 40.1691 -23.2091
17 36.0045 -29.0077 14.4014
17 -39.3324 7.2668 -3.64275
17 -8.64017 -17.6399 -47.967
17 -42.4959 -11.9911 -28.2199
156
Atoms. Timestep: 8000
15 15.6932 16.1773 -39.5307
15 -26.3291 4.62713 12.5799
15 -4.98719 -44.1797 -27.6707
15 -31.7648 42.4144 -13.7551
15 -37.1965 3.45841 -2.09835
15 -22.8008 -45.9157 25.3356
15 -41.0956 49.3972 7.62745
15 38.8206 -23.3136 -27.858
15 -43.6309 41.6463 20.5997
15 -48.572 41.7046 -30.8653
15 3.4904 43.1165 21.5791
15 -24.8041 13.3228 33.0078
15 -11.3752 45.1663 31.7827
15 -24.3029 11.2586 -5.04067
15 -29.7887 -1.86369 36.7259
15 -5.37598 -49.7686 -0.601637
15 -11.8616 0.0260884 21.4558
15 -38.6924 34.6032 36.6277
15 -3.06866 -5.53871 -7.43322
15 -44.4159 -19.0412 -46.2279
15 -47.6346 -49.8708 0.54852
15 22.456 48.0693 16.4872
15 -35.3789 -23.6296 -24.6156
15 -17.5182 -31.9899 21.7539
15 -46.5455 -8.92826 -1.06249
15 25.9609 5.13775 -39.1844
15 -19.2215 -24.6183 23.1544
15 42.3952 23.5854 23.076
15 5.22122 8.72184 -5.43094
15 34.2593 42.2117 5.89039
15 33.461 33.2596 -14.7796
15 7.14258 -24.1075 -37.8415
15 45.6671 14.2568 4.10265
15 6.65967 31.5625 13.0373
15 -40.3045 -32.1202 12.4539
15 -44.3473 -31.7991 13.7882
15 12.5417 30.8929 -35.6757
15 -41.1449 23.7206 32.2327
15 44.6019 -10.7957 -47.482
15 -9.66091 -42.8245 43.9301
15 -33.0938 -31.3568 -18.6612
15 -35.2074 40.0552 13.7809
15 -13.1682 -27.0529 -2.80661
15 -25.1153 22.9469 -41.4875
15 -35.0422 33.207 -27.4848
15 33.7181 -3.08927 26.7662
15 -13.1495 39.4359 22.7711
15 27.8646 3.27776 45.563
15 7.69424 -41.4087 -33.2316
15 0.661964 43.4338 34.212
15 13.8617 -38.0048 30.8664
15 9.47752 -23.6542 25.2644
15 -10.5038 -38.4233 -12.6175
15 47.7116 26.158 -29.7886
15 43.3425 -21.9303 -7.19459
15 5.99362 34.2576 36.2809
15 -6.28627 -6.09742 -24.9664
15 -41.6755 -32.3945 45.3445
15 31.471 -34.8286 -35.3036
15 17.0612 -39.8357 -27.1631
16 -9.79551 -8.4125 31.1696
16 -10.4095 12.3257 -36.6431
16 -27.1952 -21.5402 17.0715
16 27.2204 -2.12552 37.0399
16 -18.3074 44.8657 -48.092
16 -29.8108 13.1997 -22.2547
16 -5.9589 -47.7329 -41.0917
16 -47.9567 -14.5193 30.9532
16 -17.3511 -14.6058 -12.1641
16 4.60554 11.4662 -40.9179
16 6.54357 -26.5944 -10.5483
16 -21.8816 31.2656 -28.2245
17 -44.0246 11.9717 42.5452
17 -0.895632 -29.3485 -6.44397
17 -28.9126 -15.2982 12.7281
17 9.39515 21.4677 -9.69123
17 19.1694 -31.4242 9.76493
17 15.3223 -49.5503 8.98019
17 -8.29638 -2.9728 -38.5664
17 11.3279 14.7073 12.3811
17 -21.6117 47.3633 32.1506
17 23.4994 41.0935 16.4946
17 -32.943 -45.5081 -2.65612
17 -46.2375 -25.7672 -12.2327
17 -32.8712 -13.4301 24.7007
17 -42.8117 28.8855 5.57834
17 -6.5546 48.1636 -41.7216
17 -39.88 -34.3507 29.4944
17 8.33064 -20.9509 -16.789
17 30.3103 44.0834 -41.2735
17 -20.7936 20.1781 28.4027
17 3.22701 42.7409 1.04634
17 40.8003 40.9875 -3.65298
17 -15.7088 39.2252 -9.38746
17 -44.7327 -38.7624 9.735
17 -24.0052 -39.0133 -2.59717
17 6.67469 -4.82051 -37.8617
17 30.2956 -41.1463 2.63632
17 9.4413 1.42415 23.1933
17 28.2492 -17.4677 8.46694
17 13.2328 44.9384 48.1121
17 -20.6415 -26.0054 18.9656
17 0.141628 -7.71511 16.5616
17 8.60169 -28.4907 30.0251
17 -7.25471 8.22582 -16.7806
17 -27.3848 -3.86155 -34.7028
17 30.4278 0.227096 30.9688
17 5.69551 48.4664 -30.2
17 -13.1641 -17.4115 27.8511
17 12.8504 10.6176 -32.7156
17 13.0477 46.9849 -44.6995
17 -26.323 -40.7408 -45.6988
17 -45.6741 46.7001 -47.027
17 -14.2585 45.5831 -45.6431
17 22.6966 -25.769 -35.9074
17 37.1292 36.5809 -26.2524
17 42.8123 35.5514 25.2503
17 2.06146 2.4128 9.01825
17 3.37674 -41.4446 37.331
17 -2.65831 40.2425 35.5758
17 -14.1589 1.38188 22.4392
17 39.2824 -44.6451 -37.7599
17 30.5947 -0.187965 -47.8305
17 -19.1524 29.8122 -17.3962
17 47.2382 0.165725 4.92475
17 40.4028 11.7686 21.2791
17 -25.0713 12.5414 -12.1984
17 -0.128325 -41.3082 18.3995
17 4.10452 -0.38274 26.951
17 -16.0297 -34.897 -14.7213
17 -39.9845 39.8635 29.1155
17 42.8668 35.4887 -42.7035
17 30.0197 33.6859 12.7707
17 18.527 -46.0288 8.64863
17 -33.3325 -37.8332 11.1074
17 -10.6096 -44.8295 -47.8161
17 8.13893 9.36321 -8.63078
17 -37.8218 36.4716 9.2418
17 3.07666 -25.5824 9.98459
17 -13.2406 -27.9052 18.5903
17 -41.9743 45.9135 -28.9577
17 41.7303 -15.6911 -28.8965
17 -30.6872 11.404 44.638
17 40.3589 21.0464 -22.3323
17 -15.2533 28.4781 -35.3961
17 32.9427 3.97693 49.6281
17 -21.006 4.88707 -37.0377
17 -22.5197 24.9449 47.8126
17 -35.9515 -33.6129 41.4551
17 -20.9746 -39.5982 -34.9425
17 15.9889 -42.5422 36.6303
17 -29.3463 46.7032 -22.6338
17 45.2683 -10.5166 26.5736
17 -24.4305 15.6391 4.16259
17 -6.25775 -25.5083 -49.8486
17 -44.2659 -16.5463 -45.7218
156
Atoms. Timestep: 10000
15 26.3946 16.9895 -34.6738
15 -36.1103 -0.664084 17.2019
15 6.80937 39.5927 -25.6674
15 -37.5825 46.6713 6.59571
15 -43.7167 37.7423 -5.44113
15 -10.1361 -34.9219 18.2574
15 -28.6375 16.1407 12.796
15 46.1991 -27.3677 -39.8925
15 -45.5416 -41.4983 6.60761
15 -29.0433 -28.644 45.5918
15 -5.97537 40.9391 10.765
15 -30.9654 23.4322 32.4513
15 -17.3024 32.471 34.3263
15 49.0115 21.6355 7.34039
15 -33.1435 -4.59336 36.8477
15 22.2156 44.5787 3.14863
15 2.87882 2.67234 6.49746
15 -44.4363 26.5691 32.6675
15 -11.2996 -19.9642 4.47403
15 42.7834 -12.9292 29.9777
15 35.3792 -49.0244 12.8938
15 23.2705 48.1153 8.39274
15 -16.4357 -30.7507 -19.449
15 0.400525 49.8321 39.4503
15 -43.4355 -8.51814 -0.733739
15 10.4171 22.796 -31.7816
15 -13.0401 -36.7923 39.7765
15 -49.1893 34.2801 17.0257
15 -20.9745 25.6627 -8.99775
15 36.4939 -29.3677 -15.7667
15 45.4992 25.5037 -32.0778
15 22.0216 -34.9009 -35.2259
15 44.6495 -32.5169 -0.0144178
15 31.674 37.4599 30.12
15 -40.7687 -36.1935 17.2532
15 43.6946 -49.2151 31.2109
15 19.5266 18.4749 -10.171
15 -36.4135 29.0388 35.9362
15 32.728 -3.64019 39.955
15 -7.14689 48.6436 -48.3374
15 1.54473 -29.0213 -44.0625
15 -29.9007 15.0347 9.75132
15 -7.28751 -30.3085 -5.68503
15 -35.9502 3.80397 -43.4545
15 -28.0138 28.2787 -39.4387
15 31.0692 -30.7767 18.7908
15 -7.1128 -33.1115 40.9373
15 29.8449 2.65828 -48.3148
15 -15.7941 45.8703 -37.1822
15 18.2845 45.6033 -42.5962
15 -3.16325 -7.38455 36.4164
15 19.0338 -34.9318 27.2318
15 -7.61451 43.6153 -3.3108
15 -34.3081 32.4967 -19.3061
15 29.0155 -22.4818 -18.6219
15 3.26355 47.0531 44.9235
15 -10.6218 -16.6344 -22.666
15 41.6749 -23.0071 33.5168
15 41.0454 -25.909 -27.7096
15 16.354 -41.8097 30.2412
16 7.70599 -15.8361 19.1007
16 3.50734 11.8377 -35.3819
16 -39.9276 -10.3393 22.0189
16 34.7639 7.02412 21.898
16 0.654591 37.6255 16.1178
16 -22.2122 5.44654 -25.0934
16 -4.52871 -46.599 -39.678
16 34.823 -17.9336 47.5329
16 -40.5574 -21.0203 -11.8737
16 13.5023 0.300808 -30.023
16 11.2971 -19.764 -2.62767
16 -32.7069 41.3082 -26.3188
17 -45.2059 9.14003 33.3472
17 -6.39458 -30.4057 -10.1267
17 -37.0504 -7.05272 21.276
17 6.42919 38.3122 -12.8235
17 23.9053 -36.2267 23.8526
17 8.13029 -43.629 26.3587
17 -34.6462 -8.32337 -47.3021
17 10.2855 12.8025 19.2764
17 -14.6852 -40.2872 44.7922
17 35.5544 36.569 20.9062
17 -33.6208 33.7662 -12.3112
17 -35.372 -37.2463 3.48663
17 -40.7191 -13.2172 29.0004
17 -43.8981 13.3378 10.5352
17 -3.0935 45.8315 -44.2207
17 -47.1787 -41.6998 40.2503
17 23.7546 -32.2544 -23.2058
17 16.9489 42.6301 -31.8669
17 -33.396 22.6463 32.3843
17 13.8156 30.4799 4.9388
17 35.6447 -45.8358 7.02125
17 -6.60151 -40.0505 -0.62736
17 -48.3983 47.9778 8.68548
17 -33.0769 41.5386 -1.97548
17 -4.64086 2.87576 -34.0415
17 -48.8941 -28.9968 8.37718
17 15.653 6.0435 23.097
17 35.7084 -0.204708 9.88186
17 16.9418 -49.0521 48.9888
17 -33.0767 -20.6181 13.9528
17 12.9938 -11.887 8.41765
17 -1.45927 -14.421 34.5562
17 -10.4704 25.1326 -22.9619
17 -31.4648 -2.28307 -41.798
17 -42.846 7.56553 39.9834
17 13.2354 29.0517 -27.7169
17 -27.7835 -25.5071 29.15
17 10.4403 6.13193 -30.4697
17 27.0761 48.6069 42.1456
17 -25.1454 42.9429 39.6966
17 -40.3459 36.7088 -39.2295
17 -14.0895 -44.4681 -38.5291
17 23.7292 -28.0317 -16.253
17 36.0883 -48.6913 -21.9862
17 32.0409 31.2458 16.9684
17 -1.53261 13.339 6.24512
17 -11.6785 -45.5716 39.5982
17 -13.6077 36.2926 23.7162
17 -19.5771 -19.6593 19.4252
17 -46.2126 41.6166 -33.7444
17 5.22033 10.1011 -42.0291
17 -2.10196 38.7799 -9.53042
17 -38.3287 -5.36921 14.268
17 -49.9165 0.918 11.9629
17 -28.8841 20.5458 -21.1757
17 -4.69107 -45.4247 11.1878
17 14.0686 -5.67746 23.2231
17 -7.07362 -47.0613 -31.2066
17 -12.7204 -33.5035 23.719
17 43.5337 34.1344 38.8215
17 20.7319 46.0642 14.696
17 38.385 41.7797 25.3443
17 -45.1769 -22.6544 -10.412
17 -7.11335 40.8878 -30.0898
17 19.0536 -6.72381 -24.9251
17 -21.4559 43.4563 16.5423
17 5.30585 -19.3314 -19.1169
17 10.4461 -18.7946 3.788
17 46.7117 24.4459 -26.111
17 30.5952 -21.9674 -16.1905
17 -41.1223 13.4867 -44.8775
17 -45.8986 16.164 -19.4337
17 -23.8177 28.4733 -38.0374
17 32.9821 13.6271 -45.4963
17 -34.9384 -5.78309 -17.9921
17 -39.6483 20.8893 40.0277
17 -30.5914 -24.5924 39.7689
17 -33.1922 -20.7617 -14.8437
17 18.4474 -31.4801 39.8392
17 -31.9674 -33.6179 -32.3492
17 30.9365 6.45036 29.0559
17 -16.703 30.7645 3.83729
17 3.28512 -20.1585 40.4096
17 -47.9745 -23.8453 -42.2841
156
Atoms. Timestep: 12000
15 12.7485 -3.73815 -36.5759
15 -17.9766 -14.3793 -1.08732
15 6.27614 41.8802 -21.7135
15 48.5205 18.3246 13.6178
15 27.047 43.084 -3.35714
15 -29.5536 -24.9337 6.05131
15 -23.3147 30.7582 21.9482
15 38.0258 -41.363 40.693
15 47.5402 25.6312 -6.01876
15 -28.4719 -17.1029 -50.2008
15 -45.1126 38.9132 22.2551
15 -19.2461 4.56614 19.2796
15 -32.8399 -45.8169 45.5181
15 -34.5467 35.3226 -5.96562
15 39.0289 -17.5316 45.3452
15 19.7455 36.8142 -7.04148
15 27.4057 3.37195 1.00865
15 -39.0998 15.9475 29.6407
15 -37.4598 -35.2892 26.0077
15 33.5681 -17.1604 19.5952
15 37.9901 15.9142 -2.41105
15 6.42752 41.2847 20.0738
15 2.44079 43.665 -34.8794
15 -26.3786 45.6991 23.9504
15 -34.2522 -11.8831 1.87148
15 -5.74505 26.7464 -34.0738
15 13.6757 -46.5366 25.5942
15 -45.7104 -42.2367 17.2045
15 -12.6901 37.6906 5.08288
15 25.7224 -38.887 -24.4202
15 -35.9426 8.38516 -34.2663
15 19.757 -18.6039 -10.8616
15 37.3085 -36.5732 0.145045
15 14.6355 44.0118 15.1025
15 -41.4387 -11.8961 8.07798
15 -39.4242 45.4385 -46.8131
15 4.77406 29.0986 -16.6713
15 -34.8421 36.4604 49.0867
15 33.7582 28.4132 33.7228
15 -21.7136 42.364 42.369
15 3.83061 -47.6383 -40.5555
15 -35.3219 8.96045 25.1456
15 -17.8428 44.4876 -8.45989
15 -20.5861 -4.83225 45.791
15 -25.3097 27.8687 47.6067
15 19.6574 -15.4074 19.4594
15 -21.7308 -22.1722 -42.6399
15 21.4874 -2.99131 40.3974
15 -5.77584 29.8634 -48.6232
15 5.49959 45.4183 -38.8766
15 -8.28542 -39.8666 25.3984
15 22.5591 -26.455 24.3456
15 -2.93716 39.0859 -14.2544
15 49.1186 26.024 -27.3274
15 22.8073 -23.6741 -17.9239
15 -0.996995 -42.4929 33.4734
15 -23.5755 -14.8127 -11.4695
15 47.6924 -39.032 -41.9672
15 22.1325 0.332419 49.7753
15 -48.3641 -31.1858 34.5753
16 1.42889 -8.76105 5.05992
16 -9.22254 8.12273 -37.9521
16 47.0466 -20.2108 41.6022
16 4.31563 15.5121 24.0972
16 21.715 -47.3297 9.78535
16 -12.1432 14.9458 -15.8485
16 -21.4239 -27.328 33.6151
16 -38.9595 -16.204 -48.9786
16 -34.1612 -6.0376 -8.75524
16 26.2441 -3.62169 -23.6421
16 -3.77884 -19.8785 14.586
16 -32.5132 29.1687 -44.8842
17 -43.0602 -0.837734 -46.0379
17 1.59759 -37.3119 11.1953
17 -37.1925 -13.0836 8.29217
17 -5.95234 49.9678 -22.6291
17 26.7241 -47.7482 3.91678
17 9.0134 45.0452 22.2239
17 39.0745 -16.6527 38.5764
17 4.19739 20.6206 18.4825
17 -21.1784 -26.4408 41.1372
17 37.6423 24.636 29.8041
17 -44.9771 20.461 -12.1085
17 -33.4029 -34.0937 -2.13983
17 -47.162 -12.6922 24.1295
17 -38.5583 -1.57355 7.03435
17 -6.62796 47.2875 -33.6139
17 46.9142 -32.8321 35.2725
17 39.5377 -19.098 -37.8661
17 -3.7433 -43.5931 -36.988
17 -27.2272 28.4758 35.1253
17 16.2994 37.2929 18.5017
17 21.5332 49.2535 6.51581
17 -11.2918 -24.5862 9.07841
17 49.6132 -42.6013 14.7854
17 -24.8824 49.5395 4.6928
17 -6.37149 -9.77605 -30.9102
17 49.0951 -40.8003 -9.19283
17 28.5824 20.402 18.3015
17 13.6574 -17.8291 23.8917
17 25.9923 27.8285 -46.6945
17 -10.7076 -28.7256 22.2941
17 4.50435 -11.0178 10.7452
17 6.47623 7.65299 31.8292
17 -8.78222 8.06937 -16.2338
17 -21.7374 -14.2955 -15.8878
17 -44.3948 -10.8437 44.755
17 22.2005 12.8167 -18.6311
17 -29.5709 -33.6446 30.9904
17 17.2155 -4.29238 -47.1818
17 3.66727 28.8042 23.8836
17 -38.1203 26.7394 20.1985
17 -39.1058 45.5649 48.4288
17 -0.85618 38.5843 -32.0591
17 26.5455 -35.3039 -2.97877
17 29.4104 35.6793 -18.7692
17 19.5565 23.7758 -4.27698