LAMMPS (7 Aug 2019)
# Test system for LAMMPS simulation

units       real
atom_style  full
log         sim.log
